
     Program PWSCF v.6.6 starts on 16Apr2022 at 23:43:22 

     This program is part of the open-source Quantum ESPRESSO suite
     for quantum simulation of materials; please cite
         "P. Giannozzi et al., J. Phys.:Condens. Matter 21 395502 (2009);
         "P. Giannozzi et al., J. Phys.:Condens. Matter 29 465901 (2017);
          URL http://www.quantum-espresso.org", 
     in publications or presentations arising from this work. More details at
     http://www.quantum-espresso.org/quote

     Parallel version (MPI), running on    10 processors

     MPI processes distributed on     1 nodes
     R & G space division:  proc/nbgrp/npool/nimage =      10
     Fft bands division:     nmany     =       1
     Reading input from input.in
     Message from routine read_cards :
     DEPRECATED: no units specified in ATOMIC_POSITIONS card
     Message from routine read_cards :
     ATOMIC_POSITIONS: units set to alat

     Current dimensions of program PWSCF are:
     Max number of different atomic species (ntypx) = 10
     Max number of k-points (npk) =  40000
     Max angular momentum in pseudopotentials (lmaxx) =  3

     Subspace diagonalization in iterative solution of the eigenvalue problem:
     a serial algorithm will be used

 CNQ:init_run
 
     Parallelization info
     --------------------
     sticks:   dense  smooth     PW     G-vecs:    dense   smooth      PW
     Min         115     115     33                 2574     2574     401
     Max         118     118     34                 2575     2575     403
     Sum        1159    1159    337                25749    25749    4015
 
 nkstot,in init_run           8


     bravais-lattice index     =            2
     lattice parameter (alat)  =      10.20000000000000  a.u.
     unit-cell volume          =     265.30199999999996 (a.u.)^3
     number of atoms/cell      =            2
     number of atomic types    =            1
     number of electrons       =         8.00
     number of Kohn-Sham states=            4
     kinetic-energy cutoff     =      80.0000  Ry
     charge density cutoff     =     320.0000  Ry
     convergence threshold     =      1.0E-08
     mixing beta               =       0.7000
     number of iterations used =            8  plain     mixing
     Exchange-correlation= PBE
                           (   1   4   3   4   0   0   0)

     celldm(1)=  10.200000  celldm(2)=   0.000000  celldm(3)=   0.000000
     celldm(4)=   0.000000  celldm(5)=   0.000000  celldm(6)=   0.000000

     crystal axes: (cart. coord. in units of alat)
               a(1) = (  -0.500000   0.000000   0.500000 )  
               a(2) = (   0.000000   0.500000   0.500000 )  
               a(3) = (  -0.500000   0.500000   0.000000 )  

     reciprocal axes: (cart. coord. in units 2 pi/alat)
               b(1) = ( -1.000000 -1.000000  1.000000 )  
               b(2) = (  1.000000  1.000000  1.000000 )  
               b(3) = ( -1.000000  1.000000 -1.000000 )  


     PseudoPot. # 1 for Si read from file:
     ./Si_ONCV_PBE_fr.upf
     MD5 check sum: dec843b60d969cba929ba255abf5e6d3
     Pseudo is Norm-conserving + core correction, Zval =  4.0
     Generated using ONCVPSP code by D. R. Hamann
     Using radial grid of 1528 points,  6 beta functions with: 
                l(1) =   0
                l(2) =   0
                l(3) =   1
                l(4) =   1
                l(5) =   2
                l(6) =   2

     atomic species   valence    mass     pseudopotential
        Si             4.00    28.08550     Si( 1.00)

     48 Sym. Ops., with inversion, found (24 have fractional translation)



   Cartesian axes

     site n.     atom                  positions (alat units)
         1           Si  tau(   1) = (   0.0000000   0.0000000   0.0000000  )
         2           Si  tau(   2) = (   0.2500000   0.2500000   0.2500000  )
 CNQ:nkstot in summary           8           8

     number of k points=     8
                       cart. coord. in units 2pi/alat
        k(    1) = (   0.0000000   0.0000000   0.0000000), wk =   0.0312500
        k(    2) = (  -0.2500000   0.2500000  -0.2500000), wk =   0.2500000
        k(    3) = (   0.5000000  -0.5000000   0.5000000), wk =   0.1250000
        k(    4) = (   0.0000000   0.5000000   0.0000000), wk =   0.1875000
        k(    5) = (   0.7500000  -0.2500000   0.7500000), wk =   0.7500000
        k(    6) = (   0.5000000   0.0000000   0.5000000), wk =   0.3750000
        k(    7) = (   0.0000000  -1.0000000   0.0000000), wk =   0.0937500
        k(    8) = (  -0.5000000  -1.0000000   0.0000000), wk =   0.1875000

     Dense  grid:    25749 G-vectors     FFT dimensions: (  48,  48,  48)
 nkstot,after summary           8

     Estimated max dynamical RAM per process >       3.73 MB

     Estimated total dynamical RAM >      37.32 MB
 CNQ:rhoin,allocate_fft  0.000000000000000E+000  0.000000000000000E+000
  0.000000000000000E+000  0.000000000000000E+000  0.000000000000000E+000
 CNQ:MyG:  0.000000000000000E+000  0.000000000000000E+000
  0.000000000000000E+000   1.00000000000000       -1.00000000000000     
   1.00000000000000       -1.00000000000000        1.00000000000000     
  -1.00000000000000        2.00000000000000       0.000000000000000E+000
  -2.00000000000000        3.00000000000000       -1.00000000000000     
  -1.00000000000000        1.00000000000000        1.00000000000000     
  -3.00000000000000        2.00000000000000       -2.00000000000000     
   2.00000000000000       -2.00000000000000        2.00000000000000     
  -2.00000000000000        3.00000000000000       -1.00000000000000     
  -3.00000000000000        2.00000000000000       0.000000000000000E+000
  -4.00000000000000     
 CNQ:rhoin,hinit0  0.000000000000000E+000  0.000000000000000E+000
  0.000000000000000E+000  0.000000000000000E+000  0.000000000000000E+000
 CNQ:rhoin, in potinit F T
 CNQ:rhoin, starting_pot Case c

     Initial potential from superposition of free atoms

     starting charge    7.99877, renormalised to    8.00000
 CNQ:rhoin,potinit  6.712806817324890E-003  7.701116733365848E-003
  1.080264723197472E-002  1.626503646793959E-002  2.404510177841040E-002
     Starting wfcs are    8 randomized atomic wfcs
        _____ ____    _    ______        __      
       |_6.6_|  _ \  / \  |  _ \ \      / /      
         | | | | | |/ _ \ | |_) \ \ /\ / /       
         | | | |_| / ___ \|  __/ \ V  V /        
         |_| |____/_/   \_\_|     \_/\_/         
      
     TDPW: 
     Please cite TDAP work done with this code as:
        The Journal of chemical physics 129.5 (2008): 054110
        Advanced Theory and Simulations 1.8 (2018): 1870018
        Advanced Theory and Simulations 1.8 (2018): 1800055
        Nature Communications 11.1 (2020): 1-8
      
     Any question, Please contact cndaqiang@IOP 
        ^_^   PAW is too hard for me   ^_^   
        ^_^     SOC need to test    ^_^   
     TDPW: ========================= 
     TDPW: calculation is scf and not do TDevolve.
     TDPW: ========================= 
     -------------------------
     TDPW: input parameters   
     QEPW: calculation            =        scf
     QEPW: ion_dynamics           =       none
     TDPW: tddft_is_on            =          F
     TDPW: suddenChangeFix        =          T
     TDPW: diagonSteps            =          2
     TDPW: edt                    =    1.00000
     QEPW: dt                     =   20.00000
     QEPW: nstep                  =          1
     TDPW: TDIfinal               =          1
     TDPW: mstep                  =       1000
     TDPW: screen                 =          F
     TDPW: nwevc                  =          0
     TDPW: punchks                =          T
     TDPW: punchtdks              =          F
     TDPW: TDDebug                =          F
     TDPW: td_quiet               =          F
     TDPW: cal_pop0               =          F
     TDPW: td_constrained         =          F
     QEPW: diago_full_acc         =          F
     QEPW: conv_thr(d\rho)        =  0.100E-07
     TDPW: hybrid_conv_thr        =  0.100E-07
     QEPW: scf_must_converge      =          T
     TDPW: hybrid_must_converge   =          F
     TDPW: hybrid_loop_converge   =          F
     TDPW: hybrid_dynamic_thr     =          F
     TDPW: hybrid_multi_thr       =  0.100E+02
     TDPW: electron_maxstep       =          F
     TDPW: hybrid_maxstep         =          F
     TDPW: Debug parameters         
     TDPW: TDChangexk(BUG)        =          F
     TDPW: TDg2_kin               =          T
     TDPW: TDinit_us_2            =          F
     TDPW: norm_prod              =          F
     TDPW: inv_prod               =          T
     TDPW: current_debug          =          F
     TDPW: td_current_k           =          F
     TDPW: td_Big_MeM             =          F
     -- rho/D/L... by tdks  --
     TDPW: use_tdks               =           F
     TDPW: td_ht                  =           0
     TDPW: orthogonalStep         =          -1
     ---------i-PI------------
     TDPW: [ td_i_pi ]            =          F
     TDPW: [td_nbeadstot]         =          1
     TDPW: td_tract_atom          =          T
     -------------------------
     TDPW:[GaugeField(TDDFT)]     =         T
     TDPW: DFTAfield              =          F
     TDPW: [tefield(DFT)  ]       =          F
     TDPW: [tefield(TDDFT)]       =          F
     TDPW: td_outputD             =          T
     TDPW: td_outputL             =          T
     TDPW: td_outputS             =          F
     TDPW: td_transitionD         =          F
     TDPW: use_origin             =          F
     TDPW: [originx,y,z]          =   0.0000  0.0000  0.0000
     TDPW: td_Lrcut[Bohr]         = -10.0000
     TDPW: origin[Ang]            =   0.0000  0.0000  0.0000
     TDPW: td_Lrcut[Ang]          =  -5.2918
     TDPW: LastDiagonA            =          F
     TDPW: LastDiagonE            =          F
     TDPW: LastDiagonExp          =          F
     TDPW: tdexp_fwfft            =          F
     TDPW: td_real_evc            =          F
     QEPW: B_field                =   0.0000  0.0000  0.0000
     TDPW: scissor_val[eV]        =   0.0000
     TDPW: scissor_con[eV]        =   0.0000
     TDPW: addHscissor            =          T
     ---- develop ------------
     TDPW: td_outputF(Force)      =          T
     TDPW: td_SubtractSumF        =          T
     TDPW: td_FixMC(CenterOfMass) =          T
     TDPW: td_forces_kscf         =          F
     TDPW: td_outputVelocity_step =          F
     TDPW: td_restartingpot       =          F
     TDPW: first_loop_diagon      =          F
     ---- Test ---------------
     TDPW: td_DDB                 =          F
     TDPW: td_DDB_start[+homo]    =          0
     TDPW: td_DDB_end[+homo]      =          1
     TDPW: td_DDB_digon           =          F
     TDPW: td_DDB_kbT             =   0.0019
     TDPW: td_DDB_nabla           =   0.0000
     TDPW: td_random_temperature  =   0.0000
     TDPW: mean_csave_scale       =   0.0000
     ---- Not support Now ----
     TDPW: [x]rho_debug           =          F
     TDPW: [x]rho_build           =          F
     TDPW: [x]rho_evc             =          F
     TDPW: [x]DPEqSumBand         =          F
     TDPW: [x]tdSmethod(100)      =          F
     TDPW: [x]scissor             =   0.0000
      
     =====================
     MD step ( callLastDiagon ) = 1 )
     =====================

     TDPW: Electric field is     0.000000000    0.000000000    0.000000000
     TDPW: Not add force and energy of field with atoms now

     total cpu time spent up to now is        0.2 secs

     Self-consistent Calculation

     iteration #  1     ecut=    80.00 Ry     beta= 0.70
     Davidson diagonalization with overlap
     ethr =  1.00E-02,  avg # of iterations =  2.0

     Threshold (ethr) on eigenvalues was too large:
     Diagonalizing with lowered threshold

     Davidson diagonalization with overlap
     ethr =  6.50E-04,  avg # of iterations =  1.9

     total cpu time spent up to now is        0.3 secs

     total energy              =     -16.90683942 Ry
     estimated scf accuracy    <       0.06076309 Ry

     iteration #  2     ecut=    80.00 Ry     beta= 0.70
     Davidson diagonalization with overlap
     ethr =  7.60E-04,  avg # of iterations =  1.0

     total cpu time spent up to now is        0.3 secs

     total energy              =     -16.90863139 Ry
     estimated scf accuracy    <       0.00323802 Ry

     iteration #  3     ecut=    80.00 Ry     beta= 0.70
     Davidson diagonalization with overlap
     ethr =  4.05E-05,  avg # of iterations =  2.1

     total cpu time spent up to now is        0.4 secs

     total energy              =     -16.90922494 Ry
     estimated scf accuracy    <       0.00006483 Ry

     iteration #  4     ecut=    80.00 Ry     beta= 0.70
     Davidson diagonalization with overlap
     ethr =  8.10E-07,  avg # of iterations =  4.5

     total cpu time spent up to now is        0.5 secs

     total energy              =     -16.90928949 Ry
     estimated scf accuracy    <       0.00000056 Ry

     iteration #  5     ecut=    80.00 Ry     beta= 0.70
     Davidson diagonalization with overlap
     ethr =  7.04E-09,  avg # of iterations =  6.2

     total cpu time spent up to now is        0.5 secs

     total energy              =     -16.90929146 Ry
     estimated scf accuracy    <       0.00000011 Ry

     iteration #  6     ecut=    80.00 Ry     beta= 0.70
     Davidson diagonalization with overlap
     ethr =  1.35E-09,  avg # of iterations =  2.2

     total cpu time spent up to now is        0.6 secs

     End of self-consistent calculation

          k = 0.0000 0.0000 0.0000 (  3143 PWs)   bands (ev):

    -5.6320   6.4681   6.4681   6.4681

          k =-0.2500 0.2500-0.2500 (  3215 PWs)   bands (ev):

    -4.8190   2.4949   5.6908   5.6908

          k = 0.5000-0.5000 0.5000 (  3214 PWs)   bands (ev):

    -3.2522  -0.6036   5.2462   5.2462

          k = 0.0000 0.5000 0.0000 (  3207 PWs)   bands (ev):

    -4.5327   2.9468   4.5325   4.5325

          k = 0.7500-0.2500 0.7500 (  3208 PWs)   bands (ev):

    -2.8650   0.0238   2.8592   4.2139

          k = 0.5000 0.0000 0.5000 (  3190 PWs)   bands (ev):

    -3.5524   0.9435   2.6289   5.1113

          k = 0.0000-1.0000 0.0000 (  3250 PWs)   bands (ev):

    -1.4192  -1.4192   3.5541   3.5541

          k =-0.5000-1.0000 0.0000 (  3188 PWs)   bands (ev):

    -1.2461  -1.2461   2.5209   2.5209

     highest occupied level (ev):     6.4681

!    total energy              =     -16.90929148 Ry
     estimated scf accuracy    <          6.4E-09 Ry

     The total energy is the sum of the following terms:
     one-electron contribution =       5.10260754 Ry
     hartree contribution      =       1.10336035 Ry
     xc contribution           =      -6.21550079 Ry
     ewald contribution        =     -16.89975857 Ry

     convergence has been achieved in   6 iterations

     Forces acting on atoms (cartesian axes, Ry/au):

     atom    1 type  1   force =    -0.00000000   -0.00000000   -0.00000000
     atom    2 type  1   force =     0.00000000    0.00000000    0.00000000

     Total force =     0.000000     Total SCF correction =     0.000000


     Computing stress (Cartesian axis) and pressure

          total   stress  (Ry/bohr**3)                   (kbar)     P=       44.96
   0.00030563   0.00000000   0.00000000           44.96        0.00        0.00
   0.00000000   0.00030563  -0.00000000            0.00       44.96       -0.00
   0.00000000  -0.00000000   0.00030563            0.00       -0.00       44.96

     TDPW(debug): Save memory used to ./pwscf.memory
 CNQedir           1 alat   10.2000000000000      tau  0.000000000000000E+000
  0.000000000000000E+000  0.000000000000000E+000 bg  -1.00000000000000     
  -1.00000000000000        1.00000000000000      tvectb  0.000000000000000E+000
 saw(emaxpos,eopreg, tvectb ) -4.999999999999998E-002
 (alat/bmod)   5.88897274573418     
 saw*(alat/bmod) -0.294448637286709     
 zvia*saw*(alat/bmod)  -1.17779454914684     
 (fpi)   12.5663706143592     
 (omega)   265.302000000000     
 CNQedir           1 alat   10.2000000000000      tau  0.250000000000000     
  0.250000000000000       0.250000000000000      bg  -1.00000000000000     
  -1.00000000000000        1.00000000000000      tvectb -0.250000000000000     
 saw(emaxpos,eopreg, tvectb ) -0.300000000000000     
 (alat/bmod)   5.88897274573418     
 saw*(alat/bmod)  -1.76669182372026     
 zvia*saw*(alat/bmod)  -7.06676729488102     
 (fpi)   12.5663706143592     
 (omega)   265.302000000000     
 CNQedir           2 alat   10.2000000000000      tau  0.000000000000000E+000
  0.000000000000000E+000  0.000000000000000E+000 bg   1.00000000000000     
   1.00000000000000        1.00000000000000      tvectb  0.000000000000000E+000
 saw(emaxpos,eopreg, tvectb ) -4.999999999999998E-002
 (alat/bmod)   5.88897274573418     
 saw*(alat/bmod) -0.294448637286709     
 zvia*saw*(alat/bmod)  -1.17779454914684     
 (fpi)   12.5663706143592     
 (omega)   265.302000000000     
 CNQedir           2 alat   10.2000000000000      tau  0.250000000000000     
  0.250000000000000       0.250000000000000      bg   1.00000000000000     
   1.00000000000000        1.00000000000000      tvectb  0.750000000000000     
 saw(emaxpos,eopreg, tvectb ) -0.300000000000000     
 (alat/bmod)   5.88897274573418     
 saw*(alat/bmod)  -1.76669182372026     
 zvia*saw*(alat/bmod)  -7.06676729488102     
 (fpi)   12.5663706143592     
 (omega)   265.302000000000     
 CNQedir           3 alat   10.2000000000000      tau  0.000000000000000E+000
  0.000000000000000E+000  0.000000000000000E+000 bg  -1.00000000000000     
   1.00000000000000       -1.00000000000000      tvectb  0.000000000000000E+000
 saw(emaxpos,eopreg, tvectb ) -4.999999999999998E-002
 (alat/bmod)   5.88897274573418     
 saw*(alat/bmod) -0.294448637286709     
 zvia*saw*(alat/bmod)  -1.17779454914684     
 (fpi)   12.5663706143592     
 (omega)   265.302000000000     
 CNQedir           3 alat   10.2000000000000      tau  0.250000000000000     
  0.250000000000000       0.250000000000000      bg  -1.00000000000000     
   1.00000000000000       -1.00000000000000      tvectb -0.250000000000000     
 saw(emaxpos,eopreg, tvectb ) -0.300000000000000     
 (alat/bmod)   5.88897274573418     
 saw*(alat/bmod)  -1.76669182372026     
 zvia*saw*(alat/bmod)  -7.06676729488102     
 (fpi)   12.5663706143592     
 (omega)   265.302000000000     
     TDPW: real_dipole<psi|er|psi>=  0.3718014E+01  0.3718014E+01  0.3718014E+01
     TDPW: imag_dipole<psi|er|psi>=  0.0000000E+00  0.0000000E+00  0.0000000E+00
     TDPW: ion_dipole3= -0.1165957E+02 -0.1165957E+02 -0.1165957E+02
     TDPW: tot_dipole3= -0.7941557E+01 -0.7941557E+01 -0.7941557E+01
     TDPW: current_real_<psi|eP|psi> is   0.8173849E-01  0.8034614E+00  0.8163792E-01
     TDPW: current_imag_<psi|eP|psi> is  0.0000000E+00  0.0000000E+00  0.0000000E+00
     TDPW: real_<psi_R|momentum(rXP)|psi_R>= -0.1750315E+00  0.1721703E-04  0.1750143E+00
     TDPW: imag_<psi_R|momentum(rXP)|psi_R>=  0.0000000E+00  0.0000000E+00  0.0000000E+00

     TDPW: Analysis done ( TDSaveStep = 1 ). Cpu time to now:         0.7 secs

     Writing output data file ./pwscf.save/
     td_init      :      0.00s CPU      0.00s WALL (       1 calls)
     td_analysis  :      0.04s CPU      0.04s WALL (       1 calls)
 
     init_run     :      0.06s CPU      0.06s WALL (       1 calls)
     electrons    :      0.36s CPU      0.41s WALL (       1 calls)
     forces       :      0.02s CPU      0.02s WALL (       1 calls)
     stress       :      0.04s CPU      0.04s WALL (       1 calls)

     Called by init_run:
     wfcinit      :      0.02s CPU      0.02s WALL (       1 calls)
     potinit      :      0.01s CPU      0.01s WALL (       1 calls)
     hinit0       :      0.01s CPU      0.02s WALL (       1 calls)

     Called by electrons:
     c_bands      :      0.28s CPU      0.32s WALL (       7 calls)
     sum_band     :      0.04s CPU      0.05s WALL (       7 calls)
     v_of_rho     :      0.03s CPU      0.04s WALL (       7 calls)
     mix_rho      :      0.00s CPU      0.00s WALL (       7 calls)

     Called by c_bands:
     init_us_2    :      0.01s CPU      0.02s WALL (     144 calls)
     cegterg      :      0.24s CPU      0.26s WALL (      56 calls)

     Called by *egterg:
     cdiaghg      :      0.01s CPU      0.01s WALL (     208 calls)
     h_psi        :      0.23s CPU      0.26s WALL (     224 calls)
     g_psi        :      0.00s CPU      0.00s WALL (     160 calls)

     Called by h_psi:
     h_psi:calbec :      0.01s CPU      0.01s WALL (     224 calls)
     vloc_psi     :      0.21s CPU      0.23s WALL (     224 calls)
     add_vuspsi   :      0.01s CPU      0.01s WALL (     224 calls)

     General routines
     calbec       :      0.01s CPU      0.02s WALL (     264 calls)
     fft          :      0.02s CPU      0.03s WALL (      98 calls)
     ffts         :      0.00s CPU      0.00s WALL (      10 calls)
     fftw         :      0.25s CPU      0.27s WALL (    2004 calls)
 
     Parallel routines
     fft_scatt_xy :      0.03s CPU      0.03s WALL (    2112 calls)
     fft_scatt_yz :      0.09s CPU      0.10s WALL (    2112 calls)
 
     PWSCF        :      0.64s CPU      0.71s WALL

 
   This run was terminated on:  23:43:23  16Apr2022            

=------------------------------------------------------------------------------=
   JOB DONE.
=------------------------------------------------------------------------------=
