ANIMSTEPS   9
CRYSTAL
PRIMVEC
    9.999999870    0.000000000    0.000000000
    0.000000000    9.999999870    0.000000000
    0.000000000    0.000000000    9.999999870
PRIMCOORD  1
      3   1
   O      6.16845   5.00000   5.00000   0.00000   0.00000  -0.05253
   O      3.83155   5.00000   5.00000   0.00000   0.00000  -0.05253
   C      5.00000   5.00000   5.00000   0.00000   0.00000  -0.06695
PRIMCOORD  2
      3   1
   O      6.16845   5.00000   5.00000   0.00000   0.05253  -0.00000
   O      3.83155   5.00000   5.00000   0.00000   0.05253   0.00000
   C      5.00000   5.00000   5.00000   0.00000   0.06695   0.00000
PRIMCOORD  3
      3   1
   O      6.16845   5.00000   5.00000   0.00000  -0.03004  -0.06401
   O      3.83155   5.00000   5.00000   0.00000   0.03004   0.06401
   C      5.00000   5.00000   5.00000   0.00000  -0.00000   0.00000
PRIMCOORD  4
      3   1
   O      6.16845   5.00000   5.00000   0.00000  -0.06401   0.03004
   O      3.83155   5.00000   5.00000   0.00000   0.06401  -0.03004
   C      5.00000   5.00000   5.00000   0.00000   0.00000   0.00000
PRIMCOORD  5
      3   1
   O      6.16845   5.00000   5.00000  -0.05777  -0.00000  -0.00000
   O      3.83155   5.00000   5.00000  -0.05777   0.00000   0.00000
   C      5.00000   5.00000   5.00000  -0.05767   0.00000   0.00000
PRIMCOORD  6
      3   1
   O      6.16845   5.00000   5.00000   0.00000   0.00000  -0.03962
   O      3.83155   5.00000   5.00000   0.00000   0.00000  -0.03962
   C      5.00000   5.00000   5.00000   0.00000   0.00000   0.08282
PRIMCOORD  7
      3   1
   O      6.16845   5.00000   5.00000  -0.00000  -0.03962  -0.00000
   O      3.83155   5.00000   5.00000  -0.00000  -0.03962   0.00000
   C      5.00000   5.00000   5.00000  -0.00000   0.08282   0.00000
PRIMCOORD  8
      3   1
   O      6.16845   5.00000   5.00000   0.07071   0.00000   0.00000
   O      3.83155   5.00000   5.00000  -0.07071  -0.00000  -0.00000
   C      5.00000   5.00000   5.00000  -0.00000  -0.00000   0.00000
PRIMCOORD  9
      3   1
   O      6.16845   5.00000   5.00000  -0.03311   0.00000  -0.00000
   O      3.83155   5.00000   5.00000  -0.03311  -0.00000   0.00000
   C      5.00000   5.00000   5.00000   0.08836   0.00000   0.00000
