[Molden Format]
[FREQ]
    0.00
    0.00
  134.78
  134.78
  142.58
  634.25
  634.25
 1317.38
 2347.30
[FR-COORD]
   O          11.65669        9.44863        9.44863
   O           7.24057        9.44863        9.44863
   C           9.44863        9.44863        9.44863
[FR-NORM-COORD]
 vibration     1
   0.00000   0.00000  -0.52525
   0.00000   0.00000  -0.52525
   0.00000   0.00000  -0.66949
 vibration     2
   0.00000   0.52525  -0.00000
   0.00000   0.52525   0.00000
   0.00000   0.66949   0.00000
 vibration     3
   0.00000  -0.30039  -0.64013
   0.00000   0.30039   0.64013
   0.00000  -0.00000   0.00000
 vibration     4
   0.00000  -0.64013   0.30039
   0.00000   0.64013  -0.30039
   0.00000   0.00000   0.00000
 vibration     5
  -0.57770  -0.00000  -0.00000
  -0.57770   0.00000   0.00000
  -0.57666   0.00000   0.00000
 vibration     6
   0.00000   0.00000  -0.39625
   0.00000   0.00000  -0.39625
   0.00000   0.00000   0.82824
 vibration     7
  -0.00000  -0.39625  -0.00000
  -0.00000  -0.39625   0.00000
  -0.00000   0.82824   0.00000
 vibration     8
   0.70711   0.00000   0.00000
  -0.70711  -0.00000  -0.00000
  -0.00000  -0.00000   0.00000
 vibration     9
  -0.33107   0.00000  -0.00000
  -0.33107  -0.00000   0.00000
   0.88362   0.00000   0.00000
