
     Program PWSCF v.6.4.1 starts on  7Mar2020 at 13:10:51 

     This program is part of the open-source Quantum ESPRESSO suite
     for quantum simulation of materials; please cite
         "P. Giannozzi et al., J. Phys.:Condens. Matter 21 395502 (2009);
         "P. Giannozzi et al., J. Phys.:Condens. Matter 29 465901 (2017);
          URL http://www.quantum-espresso.org", 
     in publications or presentations arising from this work. More details at
     http://www.quantum-espresso.org/quote

     Parallel version (MPI), running on     4 processors

     MPI processes distributed on     1 nodes
     R & G space division:  proc/nbgrp/npool/nimage =       4
     Reading input from pw.fe_afm.scf.in
 CNQ. ====== check read_namelists from qe

     Current dimensions of program PWSCF are:
     Max number of different atomic species (ntypx) = 10
     Max number of k-points (npk) =  40000
     Max angular momentum in pseudopotentials (lmaxx) =  3

     Subspace diagonalization in iterative solution of the eigenvalue problem:
     a serial algorithm will be used


     Parallelization info
     --------------------
     sticks:   dense  smooth     PW     G-vecs:    dense   smooth      PW
     Min         118      60     19                 1880      680     128
     Max         119      61     21                 1881      681     129
     Sum         473     241     81                 7521     2721     515



     bravais-lattice index     =            1
     lattice parameter (alat)  =       5.4200  a.u.
     unit-cell volume          =     159.2201 (a.u.)^3
     number of atoms/cell      =            2
     number of atomic types    =            2
     number of electrons       =        32.00
     number of Kohn-Sham states=           20
     kinetic-energy cutoff     =      25.0000  Ry
     charge density cutoff     =     200.0000  Ry
     convergence threshold     =      1.0E-06
     mixing beta               =       0.7000
     number of iterations used =            8  plain     mixing
     Exchange-correlation      = PBE ( 1  4  3  4 0 0)

     celldm(1)=   5.420000  celldm(2)=   0.000000  celldm(3)=   0.000000
     celldm(4)=   0.000000  celldm(5)=   0.000000  celldm(6)=   0.000000

     crystal axes: (cart. coord. in units of alat)
               a(1) = (   1.000000   0.000000   0.000000 )  
               a(2) = (   0.000000   1.000000   0.000000 )  
               a(3) = (   0.000000   0.000000   1.000000 )  

     reciprocal axes: (cart. coord. in units 2 pi/alat)
               b(1) = (  1.000000  0.000000  0.000000 )  
               b(2) = (  0.000000  1.000000  0.000000 )  
               b(3) = (  0.000000  0.000000  1.000000 )  


     PseudoPot. # 1 for Fe read from file:
     /home/cndaqiang/ONCVPSP/abinit/Fe_ONCV_PBE_sr.upf
     MD5 check sum: 8a3ef102c9e621c5cfc5a416823ffecc
     Pseudo is Norm-conserving + core correction, Zval = 16.0
     Generated using ONCVPSP code by D. R. Hamann
     Using radial grid of 1426 points,  6 beta functions with: 
                l(1) =   0
                l(2) =   0
                l(3) =   1
                l(4) =   1
                l(5) =   2
                l(6) =   2

     PseudoPot. # 2 for Fe read from file:
     /home/cndaqiang/ONCVPSP/abinit/Fe_ONCV_PBE_sr.upf
     MD5 check sum: 8a3ef102c9e621c5cfc5a416823ffecc
     Pseudo is Norm-conserving + core correction, Zval = 16.0
     Generated using ONCVPSP code by D. R. Hamann
     Using radial grid of 1426 points,  6 beta functions with: 
                l(1) =   0
                l(2) =   0
                l(3) =   1
                l(4) =   1
                l(5) =   2
                l(6) =   2

     atomic species   valence    mass     pseudopotential
        Fe1           16.00     1.00000     Fe( 1.00)
        Fe2           16.00     1.00000     Fe( 1.00)

     Starting magnetic structure 
     atomic species   magnetization
        Fe1          0.600
        Fe2         -0.600

     48 Sym. Ops., with inversion, found


                                    s                        frac. trans.

      isym =  1     identity                                     

 cryst.   s( 1) = (     1          0          0      )
                  (     0          1          0      )
                  (     0          0          1      )

 cart.    s( 1) = (  1.0000000  0.0000000  0.0000000 )
                  (  0.0000000  1.0000000  0.0000000 )
                  (  0.0000000  0.0000000  1.0000000 )


      isym =  2     180 deg rotation - cart. axis [0,0,1]        

 cryst.   s( 2) = (    -1          0          0      )
                  (     0         -1          0      )
                  (     0          0          1      )

 cart.    s( 2) = ( -1.0000000  0.0000000  0.0000000 )
                  (  0.0000000 -1.0000000  0.0000000 )
                  (  0.0000000  0.0000000  1.0000000 )


      isym =  3     180 deg rotation - cart. axis [0,1,0]        

 cryst.   s( 3) = (    -1          0          0      )
                  (     0          1          0      )
                  (     0          0         -1      )

 cart.    s( 3) = ( -1.0000000  0.0000000  0.0000000 )
                  (  0.0000000  1.0000000  0.0000000 )
                  (  0.0000000  0.0000000 -1.0000000 )


      isym =  4     180 deg rotation - cart. axis [1,0,0]        

 cryst.   s( 4) = (     1          0          0      )
                  (     0         -1          0      )
                  (     0          0         -1      )

 cart.    s( 4) = (  1.0000000  0.0000000  0.0000000 )
                  (  0.0000000 -1.0000000  0.0000000 )
                  (  0.0000000  0.0000000 -1.0000000 )


      isym =  5     180 deg rotation - cart. axis [1,1,0]        

 cryst.   s( 5) = (     0          1          0      )
                  (     1          0          0      )
                  (     0          0         -1      )

 cart.    s( 5) = (  0.0000000  1.0000000  0.0000000 )
                  (  1.0000000  0.0000000  0.0000000 )
                  (  0.0000000  0.0000000 -1.0000000 )


      isym =  6     180 deg rotation - cart. axis [1,-1,0]       

 cryst.   s( 6) = (     0         -1          0      )
                  (    -1          0          0      )
                  (     0          0         -1      )

 cart.    s( 6) = (  0.0000000 -1.0000000  0.0000000 )
                  ( -1.0000000  0.0000000  0.0000000 )
                  (  0.0000000  0.0000000 -1.0000000 )


      isym =  7      90 deg rotation - cart. axis [0,0,-1]       

 cryst.   s( 7) = (     0         -1          0      )
                  (     1          0          0      )
                  (     0          0          1      )

 cart.    s( 7) = (  0.0000000  1.0000000  0.0000000 )
                  ( -1.0000000  0.0000000  0.0000000 )
                  (  0.0000000  0.0000000  1.0000000 )


      isym =  8      90 deg rotation - cart. axis [0,0,1]        

 cryst.   s( 8) = (     0          1          0      )
                  (    -1          0          0      )
                  (     0          0          1      )

 cart.    s( 8) = (  0.0000000 -1.0000000  0.0000000 )
                  (  1.0000000  0.0000000  0.0000000 )
                  (  0.0000000  0.0000000  1.0000000 )


      isym =  9     180 deg rotation - cart. axis [1,0,1]        

 cryst.   s( 9) = (     0          0          1      )
                  (     0         -1          0      )
                  (     1          0          0      )

 cart.    s( 9) = (  0.0000000  0.0000000  1.0000000 )
                  (  0.0000000 -1.0000000  0.0000000 )
                  (  1.0000000  0.0000000  0.0000000 )


      isym = 10     180 deg rotation - cart. axis [-1,0,1]       

 cryst.   s(10) = (     0          0         -1      )
                  (     0         -1          0      )
                  (    -1          0          0      )

 cart.    s(10) = (  0.0000000  0.0000000 -1.0000000 )
                  (  0.0000000 -1.0000000  0.0000000 )
                  ( -1.0000000  0.0000000  0.0000000 )


      isym = 11      90 deg rotation - cart. axis [0,1,0]        

 cryst.   s(11) = (     0          0         -1      )
                  (     0          1          0      )
                  (     1          0          0      )

 cart.    s(11) = (  0.0000000  0.0000000  1.0000000 )
                  (  0.0000000  1.0000000  0.0000000 )
                  ( -1.0000000  0.0000000  0.0000000 )


      isym = 12      90 deg rotation - cart. axis [0,-1,0]       

 cryst.   s(12) = (     0          0          1      )
                  (     0          1          0      )
                  (    -1          0          0      )

 cart.    s(12) = (  0.0000000  0.0000000 -1.0000000 )
                  (  0.0000000  1.0000000  0.0000000 )
                  (  1.0000000  0.0000000  0.0000000 )


      isym = 13     180 deg rotation - cart. axis [0,1,1]        

 cryst.   s(13) = (    -1          0          0      )
                  (     0          0          1      )
                  (     0          1          0      )

 cart.    s(13) = ( -1.0000000  0.0000000  0.0000000 )
                  (  0.0000000  0.0000000  1.0000000 )
                  (  0.0000000  1.0000000  0.0000000 )


      isym = 14     180 deg rotation - cart. axis [0,1,-1]       

 cryst.   s(14) = (    -1          0          0      )
                  (     0          0         -1      )
                  (     0         -1          0      )

 cart.    s(14) = ( -1.0000000  0.0000000  0.0000000 )
                  (  0.0000000  0.0000000 -1.0000000 )
                  (  0.0000000 -1.0000000  0.0000000 )


      isym = 15      90 deg rotation - cart. axis [-1,0,0]       

 cryst.   s(15) = (     1          0          0      )
                  (     0          0         -1      )
                  (     0          1          0      )

 cart.    s(15) = (  1.0000000  0.0000000  0.0000000 )
                  (  0.0000000  0.0000000  1.0000000 )
                  (  0.0000000 -1.0000000  0.0000000 )


      isym = 16      90 deg rotation - cart. axis [1,0,0]        

 cryst.   s(16) = (     1          0          0      )
                  (     0          0          1      )
                  (     0         -1          0      )

 cart.    s(16) = (  1.0000000  0.0000000  0.0000000 )
                  (  0.0000000  0.0000000 -1.0000000 )
                  (  0.0000000  1.0000000  0.0000000 )


      isym = 17     120 deg rotation - cart. axis [-1,-1,-1]     

 cryst.   s(17) = (     0          0          1      )
                  (     1          0          0      )
                  (     0          1          0      )

 cart.    s(17) = (  0.0000000  1.0000000  0.0000000 )
                  (  0.0000000  0.0000000  1.0000000 )
                  (  1.0000000  0.0000000  0.0000000 )


      isym = 18     120 deg rotation - cart. axis [-1,1,1]       

 cryst.   s(18) = (     0          0         -1      )
                  (    -1          0          0      )
                  (     0          1          0      )

 cart.    s(18) = (  0.0000000 -1.0000000  0.0000000 )
                  (  0.0000000  0.0000000  1.0000000 )
                  ( -1.0000000  0.0000000  0.0000000 )


      isym = 19     120 deg rotation - cart. axis [1,1,-1]       

 cryst.   s(19) = (     0          0         -1      )
                  (     1          0          0      )
                  (     0         -1          0      )

 cart.    s(19) = (  0.0000000  1.0000000  0.0000000 )
                  (  0.0000000  0.0000000 -1.0000000 )
                  ( -1.0000000  0.0000000  0.0000000 )


      isym = 20     120 deg rotation - cart. axis [1,-1,1]       

 cryst.   s(20) = (     0          0          1      )
                  (    -1          0          0      )
                  (     0         -1          0      )

 cart.    s(20) = (  0.0000000 -1.0000000  0.0000000 )
                  (  0.0000000  0.0000000 -1.0000000 )
                  (  1.0000000  0.0000000  0.0000000 )


      isym = 21     120 deg rotation - cart. axis [1,1,1]        

 cryst.   s(21) = (     0          1          0      )
                  (     0          0          1      )
                  (     1          0          0      )

 cart.    s(21) = (  0.0000000  0.0000000  1.0000000 )
                  (  1.0000000  0.0000000  0.0000000 )
                  (  0.0000000  1.0000000  0.0000000 )


      isym = 22     120 deg rotation - cart. axis [-1,1,-1]      

 cryst.   s(22) = (     0         -1          0      )
                  (     0          0         -1      )
                  (     1          0          0      )

 cart.    s(22) = (  0.0000000  0.0000000  1.0000000 )
                  ( -1.0000000  0.0000000  0.0000000 )
                  (  0.0000000 -1.0000000  0.0000000 )


      isym = 23     120 deg rotation - cart. axis [1,-1,-1]      

 cryst.   s(23) = (     0         -1          0      )
                  (     0          0          1      )
                  (    -1          0          0      )

 cart.    s(23) = (  0.0000000  0.0000000 -1.0000000 )
                  ( -1.0000000  0.0000000  0.0000000 )
                  (  0.0000000  1.0000000  0.0000000 )


      isym = 24     120 deg rotation - cart. axis [-1,-1,1]      

 cryst.   s(24) = (     0          1          0      )
                  (     0          0         -1      )
                  (    -1          0          0      )

 cart.    s(24) = (  0.0000000  0.0000000 -1.0000000 )
                  (  1.0000000  0.0000000  0.0000000 )
                  (  0.0000000 -1.0000000  0.0000000 )


      isym = 25     inversion                                    

 cryst.   s(25) = (    -1          0          0      )
                  (     0         -1          0      )
                  (     0          0         -1      )

 cart.    s(25) = ( -1.0000000  0.0000000  0.0000000 )
                  (  0.0000000 -1.0000000  0.0000000 )
                  (  0.0000000  0.0000000 -1.0000000 )


      isym = 26     inv. 180 deg rotation - cart. axis [0,0,1]   

 cryst.   s(26) = (     1          0          0      )
                  (     0          1          0      )
                  (     0          0         -1      )

 cart.    s(26) = (  1.0000000  0.0000000  0.0000000 )
                  (  0.0000000  1.0000000  0.0000000 )
                  (  0.0000000  0.0000000 -1.0000000 )


      isym = 27     inv. 180 deg rotation - cart. axis [0,1,0]   

 cryst.   s(27) = (     1          0          0      )
                  (     0         -1          0      )
                  (     0          0          1      )

 cart.    s(27) = (  1.0000000  0.0000000  0.0000000 )
                  (  0.0000000 -1.0000000  0.0000000 )
                  (  0.0000000  0.0000000  1.0000000 )


      isym = 28     inv. 180 deg rotation - cart. axis [1,0,0]   

 cryst.   s(28) = (    -1          0          0      )
                  (     0          1          0      )
                  (     0          0          1      )

 cart.    s(28) = ( -1.0000000  0.0000000  0.0000000 )
                  (  0.0000000  1.0000000  0.0000000 )
                  (  0.0000000  0.0000000  1.0000000 )


      isym = 29     inv. 180 deg rotation - cart. axis [1,1,0]   

 cryst.   s(29) = (     0         -1          0      )
                  (    -1          0          0      )
                  (     0          0          1      )

 cart.    s(29) = (  0.0000000 -1.0000000  0.0000000 )
                  ( -1.0000000  0.0000000  0.0000000 )
                  (  0.0000000  0.0000000  1.0000000 )


      isym = 30     inv. 180 deg rotation - cart. axis [1,-1,0]  

 cryst.   s(30) = (     0          1          0      )
                  (     1          0          0      )
                  (     0          0          1      )

 cart.    s(30) = (  0.0000000  1.0000000  0.0000000 )
                  (  1.0000000  0.0000000  0.0000000 )
                  (  0.0000000  0.0000000  1.0000000 )


      isym = 31     inv.  90 deg rotation - cart. axis [0,0,-1]  

 cryst.   s(31) = (     0          1          0      )
                  (    -1          0          0      )
                  (     0          0         -1      )

 cart.    s(31) = (  0.0000000 -1.0000000  0.0000000 )
                  (  1.0000000  0.0000000  0.0000000 )
                  (  0.0000000  0.0000000 -1.0000000 )


      isym = 32     inv.  90 deg rotation - cart. axis [0,0,1]   

 cryst.   s(32) = (     0         -1          0      )
                  (     1          0          0      )
                  (     0          0         -1      )

 cart.    s(32) = (  0.0000000  1.0000000  0.0000000 )
                  ( -1.0000000  0.0000000  0.0000000 )
                  (  0.0000000  0.0000000 -1.0000000 )


      isym = 33     inv. 180 deg rotation - cart. axis [1,0,1]   

 cryst.   s(33) = (     0          0         -1      )
                  (     0          1          0      )
                  (    -1          0          0      )

 cart.    s(33) = (  0.0000000  0.0000000 -1.0000000 )
                  (  0.0000000  1.0000000  0.0000000 )
                  ( -1.0000000  0.0000000  0.0000000 )


      isym = 34     inv. 180 deg rotation - cart. axis [-1,0,1]  

 cryst.   s(34) = (     0          0          1      )
                  (     0          1          0      )
                  (     1          0          0      )

 cart.    s(34) = (  0.0000000  0.0000000  1.0000000 )
                  (  0.0000000  1.0000000  0.0000000 )
                  (  1.0000000  0.0000000  0.0000000 )


      isym = 35     inv.  90 deg rotation - cart. axis [0,1,0]   

 cryst.   s(35) = (     0          0          1      )
                  (     0         -1          0      )
                  (    -1          0          0      )

 cart.    s(35) = (  0.0000000  0.0000000 -1.0000000 )
                  (  0.0000000 -1.0000000  0.0000000 )
                  (  1.0000000  0.0000000  0.0000000 )


      isym = 36     inv.  90 deg rotation - cart. axis [0,-1,0]  

 cryst.   s(36) = (     0          0         -1      )
                  (     0         -1          0      )
                  (     1          0          0      )

 cart.    s(36) = (  0.0000000  0.0000000  1.0000000 )
                  (  0.0000000 -1.0000000  0.0000000 )
                  ( -1.0000000  0.0000000  0.0000000 )


      isym = 37     inv. 180 deg rotation - cart. axis [0,1,1]   

 cryst.   s(37) = (     1          0          0      )
                  (     0          0         -1      )
                  (     0         -1          0      )

 cart.    s(37) = (  1.0000000  0.0000000  0.0000000 )
                  (  0.0000000  0.0000000 -1.0000000 )
                  (  0.0000000 -1.0000000  0.0000000 )


      isym = 38     inv. 180 deg rotation - cart. axis [0,1,-1]  

 cryst.   s(38) = (     1          0          0      )
                  (     0          0          1      )
                  (     0          1          0      )

 cart.    s(38) = (  1.0000000  0.0000000  0.0000000 )
                  (  0.0000000  0.0000000  1.0000000 )
                  (  0.0000000  1.0000000  0.0000000 )


      isym = 39     inv.  90 deg rotation - cart. axis [-1,0,0]  

 cryst.   s(39) = (    -1          0          0      )
                  (     0          0          1      )
                  (     0         -1          0      )

 cart.    s(39) = ( -1.0000000  0.0000000  0.0000000 )
                  (  0.0000000  0.0000000 -1.0000000 )
                  (  0.0000000  1.0000000  0.0000000 )


      isym = 40     inv.  90 deg rotation - cart. axis [1,0,0]   

 cryst.   s(40) = (    -1          0          0      )
                  (     0          0         -1      )
                  (     0          1          0      )

 cart.    s(40) = ( -1.0000000  0.0000000  0.0000000 )
                  (  0.0000000  0.0000000  1.0000000 )
                  (  0.0000000 -1.0000000  0.0000000 )


      isym = 41     inv. 120 deg rotation - cart. axis [-1,-1,-1]

 cryst.   s(41) = (     0          0         -1      )
                  (    -1          0          0      )
                  (     0         -1          0      )

 cart.    s(41) = (  0.0000000 -1.0000000  0.0000000 )
                  (  0.0000000  0.0000000 -1.0000000 )
                  ( -1.0000000  0.0000000  0.0000000 )


      isym = 42     inv. 120 deg rotation - cart. axis [-1,1,1]  

 cryst.   s(42) = (     0          0          1      )
                  (     1          0          0      )
                  (     0         -1          0      )

 cart.    s(42) = (  0.0000000  1.0000000  0.0000000 )
                  (  0.0000000  0.0000000 -1.0000000 )
                  (  1.0000000  0.0000000  0.0000000 )


      isym = 43     inv. 120 deg rotation - cart. axis [1,1,-1]  

 cryst.   s(43) = (     0          0          1      )
                  (    -1          0          0      )
                  (     0          1          0      )

 cart.    s(43) = (  0.0000000 -1.0000000  0.0000000 )
                  (  0.0000000  0.0000000  1.0000000 )
                  (  1.0000000  0.0000000  0.0000000 )


      isym = 44     inv. 120 deg rotation - cart. axis [1,-1,1]  

 cryst.   s(44) = (     0          0         -1      )
                  (     1          0          0      )
                  (     0          1          0      )

 cart.    s(44) = (  0.0000000  1.0000000  0.0000000 )
                  (  0.0000000  0.0000000  1.0000000 )
                  ( -1.0000000  0.0000000  0.0000000 )


      isym = 45     inv. 120 deg rotation - cart. axis [1,1,1]   

 cryst.   s(45) = (     0         -1          0      )
                  (     0          0         -1      )
                  (    -1          0          0      )

 cart.    s(45) = (  0.0000000  0.0000000 -1.0000000 )
                  ( -1.0000000  0.0000000  0.0000000 )
                  (  0.0000000 -1.0000000  0.0000000 )


      isym = 46     inv. 120 deg rotation - cart. axis [-1,1,-1] 

 cryst.   s(46) = (     0          1          0      )
                  (     0          0          1      )
                  (    -1          0          0      )

 cart.    s(46) = (  0.0000000  0.0000000 -1.0000000 )
                  (  1.0000000  0.0000000  0.0000000 )
                  (  0.0000000  1.0000000  0.0000000 )


      isym = 47     inv. 120 deg rotation - cart. axis [1,-1,-1] 

 cryst.   s(47) = (     0          1          0      )
                  (     0          0         -1      )
                  (     1          0          0      )

 cart.    s(47) = (  0.0000000  0.0000000  1.0000000 )
                  (  1.0000000  0.0000000  0.0000000 )
                  (  0.0000000 -1.0000000  0.0000000 )


      isym = 48     inv. 120 deg rotation - cart. axis [-1,-1,1] 

 cryst.   s(48) = (     0         -1          0      )
                  (     0          0          1      )
                  (     1          0          0      )

 cart.    s(48) = (  0.0000000  0.0000000  1.0000000 )
                  ( -1.0000000  0.0000000  0.0000000 )
                  (  0.0000000  1.0000000  0.0000000 )


     point group O_h (m-3m) 
     there are 10 classes
     the character table:

       E     8C3   3C2   6C4   6C2'  i     8S6   3s_h  6S4   6s_d 
A_1g   1.00  1.00  1.00  1.00  1.00  1.00  1.00  1.00  1.00  1.00
A_2g   1.00  1.00  1.00 -1.00 -1.00  1.00  1.00  1.00 -1.00 -1.00
E_g    2.00 -1.00  2.00  0.00  0.00  2.00 -1.00  2.00  0.00  0.00
T_1g   3.00  0.00 -1.00  1.00 -1.00  3.00  0.00 -1.00  1.00 -1.00
T_2g   3.00  0.00 -1.00 -1.00  1.00  3.00  0.00 -1.00 -1.00  1.00
A_1u   1.00  1.00  1.00  1.00  1.00 -1.00 -1.00 -1.00 -1.00 -1.00
A_2u   1.00  1.00  1.00 -1.00 -1.00 -1.00 -1.00 -1.00  1.00  1.00
E_u    2.00 -1.00  2.00  0.00  0.00 -2.00  1.00 -2.00  0.00  0.00
T_1u   3.00  0.00 -1.00  1.00 -1.00 -3.00  0.00  1.00 -1.00  1.00
T_2u   3.00  0.00 -1.00 -1.00  1.00 -3.00  0.00  1.00  1.00 -1.00

     the symmetry operations in each class and the name of the first element:

     E        1
          identity                                               
     8C3     17   19   20   18   24   21   22   23
          120 deg rotation - cart. axis [-1,-1,-1]               
     3C2      2    4    3
          180 deg rotation - cart. axis [0,0,1]                  
     6C4      7    8   15   16   12   11
           90 deg rotation - cart. axis [0,0,-1]                 
     6C2'     5    6   14   13   10    9
          180 deg rotation - cart. axis [1,1,0]                  
     i       25
          inversion                                              
     8S6     41   43   44   42   48   45   46   47
          inv. 120 deg rotation - cart. axis [-1,-1,-1]          
     3s_h    26   28   27
          inv. 180 deg rotation - cart. axis [0,0,1]             
     6S4     31   32   39   40   36   35
          inv.  90 deg rotation - cart. axis [0,0,-1]            
     6s_d    29   30   38   37   34   33
          inv. 180 deg rotation - cart. axis [1,1,0]             

   Cartesian axes

     site n.     atom                  positions (alat units)
         1           Fe1 tau(   1) = (   0.0000000   0.0000000   0.0000000  )
         2           Fe2 tau(   2) = (   0.5000000   0.5000000   0.5000000  )

   Crystallographic axes

     site n.     atom                  positions (cryst. coord.)
         1           Fe1 tau(   1) = (  0.0000000  0.0000000  0.0000000  )
         2           Fe2 tau(   2) = (  0.5000000  0.5000000  0.5000000  )

     number of k points=    20  Marzari-Vanderbilt smearing, width (Ry)= [CNQ]  0.0100
                       cart. coord. in units 2pi/alat
        k(    1) = (   0.0625000   0.0625000   0.0625000), wk =   0.0156250
        k(    2) = (   0.0625000   0.0625000   0.1875000), wk =   0.0468750
        k(    3) = (   0.0625000   0.0625000   0.3125000), wk =   0.0468750
        k(    4) = (   0.0625000   0.0625000   0.4375000), wk =   0.0468750
        k(    5) = (   0.0625000   0.1875000   0.1875000), wk =   0.0468750
        k(    6) = (   0.0625000   0.1875000   0.3125000), wk =   0.0937500
        k(    7) = (   0.0625000   0.1875000   0.4375000), wk =   0.0937500
        k(    8) = (   0.0625000   0.3125000   0.3125000), wk =   0.0468750
        k(    9) = (   0.0625000   0.3125000   0.4375000), wk =   0.0937500
        k(   10) = (   0.0625000   0.4375000   0.4375000), wk =   0.0468750
        k(   11) = (   0.1875000   0.1875000   0.1875000), wk =   0.0156250
        k(   12) = (   0.1875000   0.1875000   0.3125000), wk =   0.0468750
        k(   13) = (   0.1875000   0.1875000   0.4375000), wk =   0.0468750
        k(   14) = (   0.1875000   0.3125000   0.3125000), wk =   0.0468750
        k(   15) = (   0.1875000   0.3125000   0.4375000), wk =   0.0937500
        k(   16) = (   0.1875000   0.4375000   0.4375000), wk =   0.0468750
        k(   17) = (   0.3125000   0.3125000   0.3125000), wk =   0.0156250
        k(   18) = (   0.3125000   0.3125000   0.4375000), wk =   0.0468750
        k(   19) = (   0.3125000   0.4375000   0.4375000), wk =   0.0468750
        k(   20) = (   0.4375000   0.4375000   0.4375000), wk =   0.0156250

                       cryst. coord.
        k(    1) = (   0.0625000   0.0625000   0.0625000), wk =   0.0156250
        k(    2) = (   0.0625000   0.0625000   0.1875000), wk =   0.0468750
        k(    3) = (   0.0625000   0.0625000   0.3125000), wk =   0.0468750
        k(    4) = (   0.0625000   0.0625000   0.4375000), wk =   0.0468750
        k(    5) = (   0.0625000   0.1875000   0.1875000), wk =   0.0468750
        k(    6) = (   0.0625000   0.1875000   0.3125000), wk =   0.0937500
        k(    7) = (   0.0625000   0.1875000   0.4375000), wk =   0.0937500
        k(    8) = (   0.0625000   0.3125000   0.3125000), wk =   0.0468750
        k(    9) = (   0.0625000   0.3125000   0.4375000), wk =   0.0937500
        k(   10) = (   0.0625000   0.4375000   0.4375000), wk =   0.0468750
        k(   11) = (   0.1875000   0.1875000   0.1875000), wk =   0.0156250
        k(   12) = (   0.1875000   0.1875000   0.3125000), wk =   0.0468750
        k(   13) = (   0.1875000   0.1875000   0.4375000), wk =   0.0468750
        k(   14) = (   0.1875000   0.3125000   0.3125000), wk =   0.0468750
        k(   15) = (   0.1875000   0.3125000   0.4375000), wk =   0.0937500
        k(   16) = (   0.1875000   0.4375000   0.4375000), wk =   0.0468750
        k(   17) = (   0.3125000   0.3125000   0.3125000), wk =   0.0156250
        k(   18) = (   0.3125000   0.3125000   0.4375000), wk =   0.0468750
        k(   19) = (   0.3125000   0.4375000   0.4375000), wk =   0.0468750
        k(   20) = (   0.4375000   0.4375000   0.4375000), wk =   0.0156250

     Dense  grid:     7521 G-vectors     FFT dimensions: (  25,  25,  25)

     Smooth grid:     2721 G-vectors     FFT dimensions: (  18,  18,  18)

     Dynamical RAM for                 wfc:       0.03 MB

     Dynamical RAM for     wfc (w. buffer):       1.05 MB

     Dynamical RAM for           str. fact:       0.06 MB

     Dynamical RAM for           local pot:       0.00 MB

     Dynamical RAM for          nlocal pot:       0.05 MB

     Dynamical RAM for                qrad:       1.96 MB

     Dynamical RAM for          rho,v,vnew:       0.37 MB

     Dynamical RAM for               rhoin:       0.12 MB

     Dynamical RAM for            rho*nmix:       0.92 MB

     Dynamical RAM for           G-vectors:       0.11 MB

     Dynamical RAM for          h,s,v(r/c):       0.29 MB

     Dynamical RAM for          <psi|beta>:       0.01 MB

     Dynamical RAM for                 psi:       0.10 MB

     Dynamical RAM for                hpsi:       0.10 MB

     Dynamical RAM for      wfcinit/wfcrot:       0.06 MB

     Estimated static dynamical RAM per process >       4.93 MB

     Estimated max dynamical RAM per process >       5.44 MB

     Estimated total dynamical RAM >      21.75 MB
     Generating pointlists ...
     new r_m :   0.3572 (alat units)  1.9362 (a.u.) for type    1
     new r_m :   0.3572 (alat units)  1.9362 (a.u.) for type    2

     Check: negative core charge=   -0.000007

     Initial potential from superposition of free atoms

     starting charge   31.99923, renormalised to   32.00000
     Starting wfcs are   20 randomized atomic wfcs

     total cpu time spent up to now is        0.7 secs

     Self-consistent Calculation

     iteration #  1     ecut=    25.00 Ry     beta= 0.70
     Davidson diagonalization with overlap
     ethr =  1.00E-02,  avg # of iterations =  3.3

     total cpu time spent up to now is        1.4 secs

     total energy              =    -476.17230089 Ry
     Harris-Foulkes estimate   =    -485.14807742 Ry
     estimated scf accuracy    <      17.05479388 Ry

     total magnetization       =     -0.000107 Bohr mag/cell
     absolute magnetization    =      4.718424 Bohr mag/cell

     iteration #  2     ecut=    25.00 Ry     beta= 0.70
     Davidson diagonalization with overlap
     ethr =  1.00E-02,  avg # of iterations =  3.0

     total cpu time spent up to now is        2.2 secs

     total energy              =    -479.84696056 Ry
     Harris-Foulkes estimate   =    -481.01261596 Ry
     estimated scf accuracy    <       2.52768210 Ry

     total magnetization       =     -0.000050 Bohr mag/cell
     absolute magnetization    =      5.093926 Bohr mag/cell

     iteration #  3     ecut=    25.00 Ry     beta= 0.70
     Davidson diagonalization with overlap
     ethr =  7.90E-03,  avg # of iterations =  2.0

     total cpu time spent up to now is        2.7 secs

     total energy              =    -480.41636829 Ry
     Harris-Foulkes estimate   =    -480.40147472 Ry
     estimated scf accuracy    <       0.14904924 Ry

     total magnetization       =     -0.000029 Bohr mag/cell
     absolute magnetization    =      4.419540 Bohr mag/cell

     iteration #  4     ecut=    25.00 Ry     beta= 0.70
     Davidson diagonalization with overlap
     ethr =  4.66E-04,  avg # of iterations =  2.0

     total cpu time spent up to now is        3.2 secs

     total energy              =    -480.44439532 Ry
     Harris-Foulkes estimate   =    -480.43747318 Ry
     estimated scf accuracy    <       0.00592786 Ry

     total magnetization       =      0.000222 Bohr mag/cell
     absolute magnetization    =      3.695370 Bohr mag/cell

     iteration #  5     ecut=    25.00 Ry     beta= 0.70
     Davidson diagonalization with overlap
     ethr =  1.85E-05,  avg # of iterations =  2.4

     total cpu time spent up to now is        3.7 secs

     total energy              =    -480.44654698 Ry
     Harris-Foulkes estimate   =    -480.44871996 Ry
     estimated scf accuracy    <       0.00235603 Ry

     total magnetization       =     -0.002073 Bohr mag/cell
     absolute magnetization    =      3.169468 Bohr mag/cell

     iteration #  6     ecut=    25.00 Ry     beta= 0.70
     Davidson diagonalization with overlap
     ethr =  7.36E-06,  avg # of iterations =  3.0

     total cpu time spent up to now is        4.4 secs

     total energy              =    -480.45925518 Ry
     Harris-Foulkes estimate   =    -480.45927682 Ry
     estimated scf accuracy    <       0.00521004 Ry

     total magnetization       =      0.040388 Bohr mag/cell
     absolute magnetization    =      2.099816 Bohr mag/cell

     iteration #  7     ecut=    25.00 Ry     beta= 0.70
     Davidson diagonalization with overlap
     ethr =  7.36E-06,  avg # of iterations =  1.4

     total cpu time spent up to now is        4.8 secs

     total energy              =    -480.45674669 Ry
     Harris-Foulkes estimate   =    -480.45966126 Ry
     estimated scf accuracy    <       0.00126952 Ry

     total magnetization       =     -0.015810 Bohr mag/cell
     absolute magnetization    =      2.007797 Bohr mag/cell

     iteration #  8     ecut=    25.00 Ry     beta= 0.70
     Davidson diagonalization with overlap
     ethr =  3.97E-06,  avg # of iterations =  3.0

     total cpu time spent up to now is        5.5 secs

     total energy              =    -480.46701534 Ry
     Harris-Foulkes estimate   =    -480.46838838 Ry
     estimated scf accuracy    <       0.00173517 Ry

     total magnetization       =     -0.006085 Bohr mag/cell
     absolute magnetization    =      0.992288 Bohr mag/cell

     iteration #  9     ecut=    25.00 Ry     beta= 0.70
     Davidson diagonalization with overlap
     ethr =  3.97E-06,  avg # of iterations =  1.0

     total cpu time spent up to now is        5.9 secs

     total energy              =    -480.38798961 Ry
     Harris-Foulkes estimate   =    -480.46713513 Ry
     estimated scf accuracy    <       0.00221834 Ry

     total magnetization       =     -0.005039 Bohr mag/cell
     absolute magnetization    =      1.004447 Bohr mag/cell

     iteration # 10     ecut=    25.00 Ry     beta= 0.70
     Davidson diagonalization with overlap
     ethr =  3.97E-06,  avg # of iterations =  3.2

     total cpu time spent up to now is        6.7 secs

     total energy              =    -479.15629871 Ry
     Harris-Foulkes estimate   =    -480.44606849 Ry
     estimated scf accuracy    <       0.00361386 Ry

     total magnetization       =     -0.004035 Bohr mag/cell
     absolute magnetization    =      3.082246 Bohr mag/cell

     iteration # 11     ecut=    25.00 Ry     beta= 0.70
     Davidson diagonalization with overlap
     ethr =  3.97E-06,  avg # of iterations =  4.0

     total cpu time spent up to now is        7.7 secs

     total energy              =    -480.38659240 Ry
     Harris-Foulkes estimate   =    -480.31519047 Ry
     estimated scf accuracy    <       0.07149736 Ry

     total magnetization       =     -0.000862 Bohr mag/cell
     absolute magnetization    =      4.982031 Bohr mag/cell

     iteration # 12     ecut=    25.00 Ry     beta= 0.70
     Davidson diagonalization with overlap
     ethr =  3.97E-06,  avg # of iterations =  3.1

     total cpu time spent up to now is        8.4 secs

     total energy              =    -480.42442648 Ry
     Harris-Foulkes estimate   =    -480.40591397 Ry
     estimated scf accuracy    <       0.03845555 Ry

     total magnetization       =      0.005224 Bohr mag/cell
     absolute magnetization    =      4.121237 Bohr mag/cell

     iteration # 13     ecut=    25.00 Ry     beta= 0.70
     Davidson diagonalization with overlap
     ethr =  3.97E-06,  avg # of iterations =  3.1

     total cpu time spent up to now is        9.2 secs

     total energy              =    -480.25359220 Ry
     Harris-Foulkes estimate   =    -480.45029727 Ry
     estimated scf accuracy    <       0.01856930 Ry

     total magnetization       =     -0.004079 Bohr mag/cell
     absolute magnetization    =      2.822329 Bohr mag/cell

     iteration # 14     ecut=    25.00 Ry     beta= 0.70
     Davidson diagonalization with overlap
     ethr =  3.97E-06,  avg # of iterations =  3.7

     total cpu time spent up to now is       10.1 secs

     total energy              =    -480.46541566 Ry
     Harris-Foulkes estimate   =    -480.46936813 Ry
     estimated scf accuracy    <       0.00139874 Ry

     total magnetization       =     -0.008875 Bohr mag/cell
     absolute magnetization    =      1.004427 Bohr mag/cell

     iteration # 15     ecut=    25.00 Ry     beta= 0.70
     Davidson diagonalization with overlap
     ethr =  3.97E-06,  avg # of iterations =  3.0

     total cpu time spent up to now is       10.9 secs

     total energy              =    -480.47221906 Ry
     Harris-Foulkes estimate   =    -480.47657020 Ry
     estimated scf accuracy    <       0.00019424 Ry

     total magnetization       =     -0.007276 Bohr mag/cell
     absolute magnetization    =      0.187004 Bohr mag/cell

     iteration # 16     ecut=    25.00 Ry     beta= 0.70
     Davidson diagonalization with overlap
     ethr =  6.07E-07,  avg # of iterations =  3.1

     total cpu time spent up to now is       11.8 secs

     total energy              =    -480.47262281 Ry
     Harris-Foulkes estimate   =    -480.47415975 Ry
     estimated scf accuracy    <       0.00074535 Ry

     total magnetization       =     -0.011964 Bohr mag/cell
     absolute magnetization    =      0.538190 Bohr mag/cell

     iteration # 17     ecut=    25.00 Ry     beta= 0.70
     Davidson diagonalization with overlap
     ethr =  6.07E-07,  avg # of iterations =  2.5

     total cpu time spent up to now is       12.4 secs

     total energy              =    -480.47414086 Ry
     Harris-Foulkes estimate   =    -480.47287705 Ry
     estimated scf accuracy    <       0.00103601 Ry

     total magnetization       =     -0.014444 Bohr mag/cell
     absolute magnetization    =      0.670709 Bohr mag/cell

     iteration # 18     ecut=    25.00 Ry     beta= 0.70
     Davidson diagonalization with overlap
     ethr =  6.07E-07,  avg # of iterations =  3.0

     total cpu time spent up to now is       13.1 secs

     total energy              =    -480.47607291 Ry
     Harris-Foulkes estimate   =    -480.47547606 Ry
     estimated scf accuracy    <       0.00048793 Ry

     total magnetization       =     -0.015371 Bohr mag/cell
     absolute magnetization    =      0.367915 Bohr mag/cell

     iteration # 19     ecut=    25.00 Ry     beta= 0.70
     Davidson diagonalization with overlap
     ethr =  6.07E-07,  avg # of iterations =  2.6

     total cpu time spent up to now is       13.7 secs

     total energy              =    -480.47661272 Ry
     Harris-Foulkes estimate   =    -480.47635759 Ry
     estimated scf accuracy    <       0.00021011 Ry

     total magnetization       =     -0.011127 Bohr mag/cell
     absolute magnetization    =      0.236403 Bohr mag/cell

     iteration # 20     ecut=    25.00 Ry     beta= 0.70
     Davidson diagonalization with overlap
     ethr =  6.07E-07,  avg # of iterations =  2.5

     total cpu time spent up to now is       14.3 secs

     total energy              =    -480.47660427 Ry
     Harris-Foulkes estimate   =    -480.47681094 Ry
     estimated scf accuracy    <       0.00007403 Ry

     total magnetization       =     -0.008694 Bohr mag/cell
     absolute magnetization    =      0.131184 Bohr mag/cell

     iteration # 21     ecut=    25.00 Ry     beta= 0.70
     Davidson diagonalization with overlap
     ethr =  2.31E-07,  avg # of iterations =  3.0

     total cpu time spent up to now is       15.1 secs

     total energy              =    -480.47686679 Ry
     Harris-Foulkes estimate   =    -480.47697473 Ry
     estimated scf accuracy    <       0.00003816 Ry

     total magnetization       =     -0.004660 Bohr mag/cell
     absolute magnetization    =      0.016655 Bohr mag/cell

     iteration # 22     ecut=    25.00 Ry     beta= 0.70
     Davidson diagonalization with overlap
     ethr =  1.19E-07,  avg # of iterations =  2.6

     total cpu time spent up to now is       15.7 secs

     total energy              =    -480.47693829 Ry
     Harris-Foulkes estimate   =    -480.47691556 Ry
     estimated scf accuracy    <       0.00005452 Ry

     total magnetization       =      0.001817 Bohr mag/cell
     absolute magnetization    =      0.067535 Bohr mag/cell

     iteration # 23     ecut=    25.00 Ry     beta= 0.70
     Davidson diagonalization with overlap
     ethr =  1.19E-07,  avg # of iterations =  1.4

     total cpu time spent up to now is       16.2 secs

     total energy              =    -480.47688775 Ry
     Harris-Foulkes estimate   =    -480.47694344 Ry
     estimated scf accuracy    <       0.00004075 Ry

     total magnetization       =      0.001394 Bohr mag/cell
     absolute magnetization    =      0.050362 Bohr mag/cell

     iteration # 24     ecut=    25.00 Ry     beta= 0.70
     Davidson diagonalization with overlap
     ethr =  1.19E-07,  avg # of iterations =  1.8

     total cpu time spent up to now is       16.7 secs

     total energy              =    -480.47692601 Ry
     Harris-Foulkes estimate   =    -480.47689541 Ry
     estimated scf accuracy    <       0.00006173 Ry

     total magnetization       =      0.001465 Bohr mag/cell
     absolute magnetization    =      0.070945 Bohr mag/cell

     iteration # 25     ecut=    25.00 Ry     beta= 0.70
     Davidson diagonalization with overlap
     ethr =  1.19E-07,  avg # of iterations =  1.0

     total cpu time spent up to now is       17.1 secs

     total energy              =    -480.47694463 Ry
     Harris-Foulkes estimate   =    -480.47692848 Ry
     estimated scf accuracy    <       0.00004117 Ry

     total magnetization       =      0.000241 Bohr mag/cell
     absolute magnetization    =      0.060306 Bohr mag/cell

     iteration # 26     ecut=    25.00 Ry     beta= 0.70
     Davidson diagonalization with overlap
     ethr =  1.19E-07,  avg # of iterations =  2.8

     total cpu time spent up to now is       17.7 secs

     total energy              =    -480.47700122 Ry
     Harris-Foulkes estimate   =    -480.47700471 Ry
     estimated scf accuracy    <       0.00000150 Ry

     total magnetization       =     -0.000432 Bohr mag/cell
     absolute magnetization    =      0.004109 Bohr mag/cell

     iteration # 27     ecut=    25.00 Ry     beta= 0.70
     Davidson diagonalization with overlap
     ethr =  4.69E-09,  avg # of iterations =  2.9

     Magnetic moment per site:
     atom:    1    charge:   13.8948    magn:    0.0038    constr:    0.0000
     atom:    2    charge:   13.8935    magn:   -0.0041    constr:    0.0000

     total cpu time spent up to now is       18.4 secs

     End of self-consistent calculation

 ------ SPIN UP ------------


          k = 0.0625 0.0625 0.0625 (   341 PWs)   bands (ev):

   -94.1357 -94.1117 -47.7542 -47.7212 -47.7212 -46.7418 -46.7418 -46.5942
     9.6609  15.5495  15.5495  18.7271  18.7271  19.5071  20.6572  20.6572
    22.3822  23.3661  23.3661  28.6559

     occupation numbers 
     1.0000   1.0000   1.0000   1.0000   1.0000   1.0000   1.0000   1.0000
     1.0000   1.0000   1.0000   1.0000   1.0000   1.0000   1.0000   1.0000
     0.0000   0.0000   0.0000   0.0000

          k = 0.0625 0.0625 0.1875 (   336 PWs)   bands (ev):

   -94.1309 -94.1139 -47.3817 -47.1102 -47.0688 -46.7563 -46.6592 -46.6134
    10.3223  15.6604  16.3397  18.8690  19.2405  19.8010  20.8072  21.2432
    21.6397  21.8731  23.4536  26.1220

     occupation numbers 
     1.0000   1.0000   1.0000   1.0000   1.0000   1.0000   1.0000   1.0000
     1.0000   1.0000   1.0000   1.0000   1.0000   1.0000   1.0000   1.0507
     0.0277   0.0000   0.0000   0.0000

          k = 0.0625 0.0625 0.3125 (   339 PWs)   bands (ev):

   -94.1254 -94.1157 -47.6522 -47.5070 -47.3294 -47.0527 -46.9947 -46.7503
    11.5610  16.3135  16.4127  18.5823  18.6403  19.4524  19.8286  20.4167
    20.4867  21.7586  22.3438  23.9939

     occupation numbers 
     1.0000   1.0000   1.0000   1.0000   1.0000   1.0000   1.0000   1.0000
     1.0000   1.0000   1.0000   1.0000   1.0000   1.0000   1.0000   1.0000
     1.0000   0.0006   0.0000   0.0000

          k = 0.0625 0.0625 0.4375 (   336 PWs)   bands (ev):

   -94.1205 -94.1158 -47.5520 -47.2205 -47.0701 -46.9611 -46.9591 -46.8950
    13.2737  15.1085  17.1502  18.1537  18.7207  19.1832  19.7399  19.9014
    21.5489  21.8625  21.9396  22.0293

     occupation numbers 
     1.0000   1.0000   1.0000   1.0000   1.0000   1.0000   1.0000   1.0000
     1.0000   1.0000   1.0000   1.0000   1.0000   1.0000   1.0000   1.0000
     0.1977   0.0000   0.0000   0.0000

          k = 0.0625 0.1875 0.1875 (   330 PWs)   bands (ev):

   -94.1279 -94.1141 -47.0869 -46.9904 -46.9608 -46.9053 -46.2363 -45.5144
    10.9538  16.3308  16.9412  18.4410  18.4500  20.3940  20.8050  21.0139
    21.7684  21.9066  23.4694  27.8578

     occupation numbers 
     1.0000   1.0000   1.0000   1.0000   1.0000   1.0000   1.0000   1.0000
     1.0000   1.0000   1.0000   1.0000   1.0000   1.0000   1.0000   1.0001
     0.0004   0.0000   0.0000   0.0000

          k = 0.0625 0.1875 0.3125 (   335 PWs)   bands (ev):

   -94.1230 -94.1155 -47.3350 -47.1885 -47.0092 -47.0072 -46.9203 -46.6220
    12.1595  16.2580  17.0474  18.0860  18.1804  19.0559  20.0401  20.7910
    21.5455  22.0461  22.6796  25.0267

     occupation numbers 
     1.0000   1.0000   1.0000   1.0000   1.0000   1.0000   1.0000   1.0000
     1.0000   1.0000   1.0000   1.0000   1.0000   1.0000   1.0000   1.0000
     0.2094   0.0000   0.0000   0.0000

          k = 0.0625 0.1875 0.4375 (   334 PWs)   bands (ev):

   -94.1194 -94.1148 -47.6456 -47.2465 -47.2209 -46.6366 -46.6280 -46.5904
    13.6758  15.3426  17.5157  17.7463  18.0950  18.7562  20.2733  20.2916
    21.7480  22.3496  22.4455  23.5273

     occupation numbers 
     1.0000   1.0000   1.0000   1.0000   1.0000   1.0000   1.0000   1.0000
     1.0000   1.0000   1.0000   1.0000   1.0000   1.0000   1.0000   1.0000
     0.0009   0.0000   0.0000   0.0000

          k = 0.0625 0.3125 0.3125 (   335 PWs)   bands (ev):

   -94.1201 -94.1141 -47.5920 -47.2136 -47.1781 -47.1739 -46.8103 -46.4611
    13.1454  16.2198  17.5609  17.8962  18.1365  18.2124  19.7724  21.2156
    21.9049  22.2712  22.5193  24.8639

     occupation numbers 
     1.0000   1.0000   1.0000   1.0000   1.0000   1.0000   1.0000   1.0000
     1.0000   1.0000   1.0000   1.0000   1.0000   1.0000   1.0000   1.0330
     0.0000   0.0000   0.0000   0.0000

          k = 0.0625 0.3125 0.4375 (   339 PWs)   bands (ev):

   -94.1183 -94.1138 -48.1013 -47.4346 -47.4231 -47.2444 -47.1119 -46.6358
    14.1532  15.3179  17.2830  17.6460  17.8525  18.5030  20.3517  20.5485
    21.7887  22.2997  22.4007  23.9047

     occupation numbers 
     1.0000   1.0000   1.0000   1.0000   1.0000   1.0000   1.0000   1.0000
     1.0000   1.0000   1.0000   1.0000   1.0000   1.0000   1.0000   1.0000
     0.0002   0.0000   0.0000   0.0000

          k = 0.0625 0.4375 0.4375 (   338 PWs)   bands (ev):

   -94.1173 -94.1132 -47.8108 -47.6368 -47.3270 -47.2278 -46.9909 -46.5011
    14.9016  15.1510  17.0821  17.1026  19.1738  19.3675  20.7436  21.0273
    21.5212  22.0098  22.7240  23.2037

     occupation numbers 
     1.0000   1.0000   1.0000   1.0000   1.0000   1.0000   1.0000   1.0000
     1.0000   1.0000   1.0000   1.0000   1.0000   1.0000   1.0000   1.0001
     0.3059   0.0000   0.0000   0.0000

          k = 0.1875 0.1875 0.1875 (   335 PWs)   bands (ev):

   -94.1249 -94.1159 -47.3928 -47.1938 -47.1746 -47.1746 -46.4190 -46.4190
    11.5844  16.9401  16.9401  17.9909  17.9909  18.6312  21.0772  21.2677
    21.2677  22.2226  22.2226  28.5843

     occupation numbers 
     1.0000   1.0000   1.0000   1.0000   1.0000   1.0000   1.0000   1.0000
     1.0000   1.0000   1.0000   1.0000   1.0000   1.0000   1.0009   1.0674
     1.0674   0.0000   0.0000   0.0000

          k = 0.1875 0.1875 0.3125 (   336 PWs)   bands (ev):

   -94.1215 -94.1152 -47.6844 -47.3035 -47.2283 -47.0648 -46.8965 -46.3826
    12.6926  16.9378  16.9847  17.6429  17.7193  17.8916  21.1396  21.2932
    21.4539  21.7166  21.9412  26.8450

     occupation numbers 
     1.0000   1.0000   1.0000   1.0000   1.0000   1.0000   1.0000   1.0000
     1.0000   1.0000   1.0000   1.0000   1.0000   1.0000   1.0060   1.0805
     0.6563   0.0027   0.0000   0.0000

          k = 0.1875 0.1875 0.4375 (   343 PWs)   bands (ev):

   -94.1190 -94.1148 -48.1366 -47.8386 -47.4952 -47.4269 -47.4044 -47.2252
    14.1117  15.5049  16.9460  17.2619  17.6165  17.9404  20.2194  20.2381
    21.2975  21.3392  21.9947  24.0388

     occupation numbers 
     1.0000   1.0000   1.0000   1.0000   1.0000   1.0000   1.0000   1.0000
     1.0000   1.0000   1.0000   1.0000   1.0000   1.0000   1.0000   1.0000
     1.0818   1.0688   0.0000   0.0000

          k = 0.1875 0.3125 0.3125 (   332 PWs)   bands (ev):

   -94.1190 -94.1135 -48.0146 -47.1886 -47.1698 -47.1298 -46.4260 -45.4759
    13.6449  16.7369  17.2814  17.5440  17.7088  18.3146  20.9676  21.0870
    21.8620  21.8971  22.9011  27.7267

     occupation numbers 
     1.0000   1.0000   1.0000   1.0000   1.0000   1.0000   1.0000   1.0000
     1.0000   1.0000   1.0000   1.0000   1.0000   1.0000   1.0000   1.0012
     0.0000   0.0000   0.0000   0.0000

          k = 0.1875 0.3125 0.4375 (   337 PWs)   bands (ev):

   -94.1175 -94.1131 -47.9787 -47.5325 -47.4127 -47.2230 -47.0561 -46.2310
    14.7460  15.7663  17.0774  17.2576  17.5013  18.2894  20.8643  20.9783
    21.7781  22.1680  22.8142  25.6464

     occupation numbers 
     1.0000   1.0000   1.0000   1.0000   1.0000   1.0000   1.0000   1.0000
     1.0000   1.0000   1.0000   1.0000   1.0000   1.0000   1.0000   1.0000
     0.0003   0.0000   0.0000   0.0000

          k = 0.1875 0.4375 0.4375 (   334 PWs)   bands (ev):

   -94.1163 -94.1122 -47.4203 -47.3904 -47.2185 -47.1211 -46.8812 -46.2646
    15.1247  15.7153  16.9370  16.9863  18.1067  18.6691  21.1708  21.3749
    21.9809  21.9899  25.2304  25.9783

     occupation numbers 
     1.0000   1.0000   1.0000   1.0000   1.0000   1.0000   1.0000   1.0000
     1.0000   1.0000   1.0000   1.0000   1.0000   1.0000   1.0131   1.0026
     0.0000   0.0000   0.0000   0.0000

          k = 0.3125 0.3125 0.3125 (   329 PWs)   bands (ev):

   -94.1176 -94.1127 -47.7013 -47.2048 -46.9573 -46.9573 -45.8673 -45.8673
    14.6731  16.8232  17.0962  17.0962  18.1745  18.1745  21.7459  21.7459
    22.0875  22.0875  22.9213  27.4532

     occupation numbers 
     1.0000   1.0000   1.0000   1.0000   1.0000   1.0000   1.0000   1.0000
     1.0000   1.0000   1.0000   1.0000   1.0000   1.0000   0.0009   0.0009
     0.0000   0.0000   0.0000   0.0000

          k = 0.3125 0.3125 0.4375 (   332 PWs)   bands (ev):

   -94.1166 -94.1126 -47.3519 -47.2159 -47.1115 -46.7779 -46.6994 -46.6218
    15.6443  16.1035  16.9768  17.1103  17.2717  17.4630  21.7645  21.8795
    21.9915  22.1515  25.8388  26.9638

     occupation numbers 
     1.0000   1.0000   1.0000   1.0000   1.0000   1.0000   1.0000   1.0000
     1.0000   1.0000   1.0000   1.0000   1.0000   1.0000   0.0005   0.0000
     0.0000   0.0000   0.0000   0.0000

          k = 0.3125 0.4375 0.4375 (   330 PWs)   bands (ev):

   -94.1156 -94.1114 -47.2698 -47.1650 -47.0380 -46.8585 -46.7862 -46.2040
    16.0761  16.3690  16.7336  16.9867  17.4215  17.9584  22.0191  22.0651
    22.0804  22.1116  26.8057  27.1290

     occupation numbers 
     1.0000   1.0000   1.0000   1.0000   1.0000   1.0000   1.0000   1.0000
     1.0000   1.0000   1.0000   1.0000   1.0000   1.0000   0.0000   0.0000
     0.0000   0.0000   0.0000   0.0000

          k = 0.4375 0.4375 0.4375 (   326 PWs)   bands (ev):

   -94.1156 -94.1115 -47.1936 -46.8918 -46.8918 -46.8074 -45.9442 -45.9442
    16.7462  16.8089  16.8089  17.1469  17.8408  17.8408  22.2601  22.2601
    22.4710  22.4710  26.4888  26.6017

     occupation numbers 
     1.0000   1.0000   1.0000   1.0000   1.0000   1.0000   1.0000   1.0000
     1.0000   1.0000   1.0000   1.0000   1.0000   1.0000   0.0000   0.0000
     0.0000   0.0000   0.0000   0.0000

 ------ SPIN DOWN ----------


          k = 0.0625 0.0625 0.0625 (   341 PWs)   bands (ev):

   -94.1359 -94.1119 -47.7544 -47.7215 -47.7215 -46.7421 -46.7421 -46.5944
     9.6607  15.5491  15.5491  18.7270  18.7270  19.5069  20.6566  20.6566
    22.3821  23.3660  23.3660  28.6557

     occupation numbers 
     1.0000   1.0000   1.0000   1.0000   1.0000   1.0000   1.0000   1.0000
     1.0000   1.0000   1.0000   1.0000   1.0000   1.0000   1.0000   1.0000
     0.0000   0.0000   0.0000   0.0000

          k = 0.0625 0.0625 0.1875 (   336 PWs)   bands (ev):

   -94.1311 -94.1140 -47.3819 -47.1105 -47.0690 -46.7565 -46.6595 -46.6136
    10.3221  15.6599  16.3393  18.8688  19.2404  19.8009  20.8066  21.2431
    21.6396  21.8725  23.4535  26.1217

     occupation numbers 
     1.0000   1.0000   1.0000   1.0000   1.0000   1.0000   1.0000   1.0000
     1.0000   1.0000   1.0000   1.0000   1.0000   1.0000   1.0000   1.0506
     0.0278   0.0000   0.0000   0.0000

          k = 0.0625 0.0625 0.3125 (   339 PWs)   bands (ev):

   -94.1257 -94.1158 -47.6524 -47.5072 -47.3296 -47.0530 -46.9949 -46.7505
    11.5607  16.3130  16.4123  18.5822  18.6400  19.4519  19.8285  20.4166
    20.4866  21.7580  22.3437  23.9935

     occupation numbers 
     1.0000   1.0000   1.0000   1.0000   1.0000   1.0000   1.0000   1.0000
     1.0000   1.0000   1.0000   1.0000   1.0000   1.0000   1.0000   1.0000
     1.0000   0.0006   0.0000   0.0000

          k = 0.0625 0.0625 0.4375 (   336 PWs)   bands (ev):

   -94.1208 -94.1157 -47.5522 -47.2207 -47.0703 -46.9613 -46.9593 -46.8952
    13.2735  15.1082  17.1497  18.1533  18.7205  19.1830  19.7397  19.9012
    21.5488  21.8619  21.9391  22.0292

     occupation numbers 
     1.0000   1.0000   1.0000   1.0000   1.0000   1.0000   1.0000   1.0000
     1.0000   1.0000   1.0000   1.0000   1.0000   1.0000   1.0000   1.0000
     0.1981   0.0000   0.0000   0.0000

          k = 0.0625 0.1875 0.1875 (   330 PWs)   bands (ev):

   -94.1281 -94.1142 -47.0871 -46.9906 -46.9610 -46.9055 -46.2366 -45.5147
    10.9535  16.3303  16.9407  18.4408  18.4498  20.3936  20.8049  21.0137
    21.7678  21.9065  23.4693  27.8575

     occupation numbers 
     1.0000   1.0000   1.0000   1.0000   1.0000   1.0000   1.0000   1.0000
     1.0000   1.0000   1.0000   1.0000   1.0000   1.0000   1.0000   1.0001
     0.0004   0.0000   0.0000   0.0000

          k = 0.0625 0.1875 0.3125 (   335 PWs)   bands (ev):

   -94.1233 -94.1155 -47.3353 -47.1888 -47.0095 -47.0074 -46.9205 -46.6222
    12.1592  16.2577  17.0470  18.0858  18.1802  19.0557  20.0399  20.7905
    21.5452  22.0456  22.6795  25.0264

     occupation numbers 
     1.0000   1.0000   1.0000   1.0000   1.0000   1.0000   1.0000   1.0000
     1.0000   1.0000   1.0000   1.0000   1.0000   1.0000   1.0000   1.0000
     0.2103   0.0000   0.0000   0.0000

          k = 0.0625 0.1875 0.4375 (   334 PWs)   bands (ev):

   -94.1198 -94.1148 -47.6458 -47.2467 -47.2212 -46.6369 -46.6282 -46.5906
    13.6756  15.3423  17.5154  17.7460  18.0949  18.7561  20.2730  20.2912
    21.7476  22.3492  22.4451  23.5271

     occupation numbers 
     1.0000   1.0000   1.0000   1.0000   1.0000   1.0000   1.0000   1.0000
     1.0000   1.0000   1.0000   1.0000   1.0000   1.0000   1.0000   1.0000
     0.0009   0.0000   0.0000   0.0000

          k = 0.0625 0.3125 0.3125 (   335 PWs)   bands (ev):

   -94.1204 -94.1141 -47.5923 -47.2139 -47.1783 -47.1742 -46.8106 -46.4614
    13.1452  16.2195  17.5608  17.8960  18.1361  18.2122  19.7720  21.2152
    21.9043  22.2711  22.5192  24.8635

     occupation numbers 
     1.0000   1.0000   1.0000   1.0000   1.0000   1.0000   1.0000   1.0000
     1.0000   1.0000   1.0000   1.0000   1.0000   1.0000   1.0000   1.0327
     0.0000   0.0000   0.0000   0.0000

          k = 0.0625 0.3125 0.4375 (   339 PWs)   bands (ev):

   -94.1187 -94.1138 -48.1015 -47.4349 -47.4233 -47.2446 -47.1121 -46.6361
    14.1530  15.3177  17.2829  17.6458  17.8522  18.5027  20.3512  20.5481
    21.7881  22.2993  22.4005  23.9044

     occupation numbers 
     1.0000   1.0000   1.0000   1.0000   1.0000   1.0000   1.0000   1.0000
     1.0000   1.0000   1.0000   1.0000   1.0000   1.0000   1.0000   1.0000
     0.0002   0.0000   0.0000   0.0000

          k = 0.0625 0.4375 0.4375 (   338 PWs)   bands (ev):

   -94.1176 -94.1132 -47.8110 -47.6370 -47.3273 -47.2281 -46.9911 -46.5013
    14.9013  15.1507  17.0820  17.1024  19.1735  19.3672  20.7431  21.0269
    21.5208  22.0092  22.7239  23.2034

     occupation numbers 
     1.0000   1.0000   1.0000   1.0000   1.0000   1.0000   1.0000   1.0000
     1.0000   1.0000   1.0000   1.0000   1.0000   1.0000   1.0000   1.0001
     0.3076   0.0000   0.0000   0.0000

          k = 0.1875 0.1875 0.1875 (   335 PWs)   bands (ev):

   -94.1251 -94.1159 -47.3931 -47.1941 -47.1749 -47.1749 -46.4192 -46.4192
    11.5842  16.9397  16.9397  17.9907  17.9907  18.6311  21.0771  21.2672
    21.2672  22.2224  22.2224  28.5841

     occupation numbers 
     1.0000   1.0000   1.0000   1.0000   1.0000   1.0000   1.0000   1.0000
     1.0000   1.0000   1.0000   1.0000   1.0000   1.0000   1.0009   1.0670
     1.0670   0.0000   0.0000   0.0000

          k = 0.1875 0.1875 0.3125 (   336 PWs)   bands (ev):

   -94.1218 -94.1152 -47.6846 -47.3038 -47.2286 -47.0651 -46.8967 -46.3828
    12.6923  16.9373  16.9844  17.6427  17.7191  17.8913  21.1390  21.2930
    21.4536  21.7160  21.9410  26.8448

     occupation numbers 
     1.0000   1.0000   1.0000   1.0000   1.0000   1.0000   1.0000   1.0000
     1.0000   1.0000   1.0000   1.0000   1.0000   1.0000   1.0059   1.0804
     0.6577   0.0028   0.0000   0.0000

          k = 0.1875 0.1875 0.4375 (   343 PWs)   bands (ev):

   -94.1194 -94.1148 -48.1368 -47.8389 -47.4955 -47.4272 -47.4046 -47.2254
    14.1115  15.5047  16.9456  17.2616  17.6164  17.9402  20.2191  20.2377
    21.2971  21.3387  21.9944  24.0385

     occupation numbers 
     1.0000   1.0000   1.0000   1.0000   1.0000   1.0000   1.0000   1.0000
     1.0000   1.0000   1.0000   1.0000   1.0000   1.0000   1.0000   1.0000
     1.0817   1.0692   0.0000   0.0000

          k = 0.1875 0.3125 0.3125 (   332 PWs)   bands (ev):

   -94.1193 -94.1135 -48.0148 -47.1889 -47.1700 -47.1301 -46.4262 -45.4761
    13.6447  16.7366  17.2812  17.5438  17.7085  18.3143  20.9671  21.0867
    21.8618  21.8964  22.9007  27.7265

     occupation numbers 
     1.0000   1.0000   1.0000   1.0000   1.0000   1.0000   1.0000   1.0000
     1.0000   1.0000   1.0000   1.0000   1.0000   1.0000   1.0000   1.0012
     0.0000   0.0000   0.0000   0.0000

          k = 0.1875 0.3125 0.4375 (   337 PWs)   bands (ev):

   -94.1179 -94.1130 -47.9789 -47.5327 -47.4129 -47.2232 -47.0563 -46.2312
    14.7458  15.7661  17.0772  17.2574  17.5011  18.2892  20.8638  20.9779
    21.7775  22.1675  22.8140  25.6462

     occupation numbers 
     1.0000   1.0000   1.0000   1.0000   1.0000   1.0000   1.0000   1.0000
     1.0000   1.0000   1.0000   1.0000   1.0000   1.0000   1.0000   1.0000
     0.0003   0.0000   0.0000   0.0000

          k = 0.1875 0.4375 0.4375 (   334 PWs)   bands (ev):

   -94.1167 -94.1121 -47.4205 -47.3906 -47.2188 -47.1214 -46.8814 -46.2649
    15.1245  15.7151  16.9368  16.9861  18.1065  18.6689  21.1703  21.3744
    21.9804  21.9892  25.2302  25.9781

     occupation numbers 
     1.0000   1.0000   1.0000   1.0000   1.0000   1.0000   1.0000   1.0000
     1.0000   1.0000   1.0000   1.0000   1.0000   1.0000   1.0130   1.0039
     0.0000   0.0000   0.0000   0.0000

          k = 0.3125 0.3125 0.3125 (   329 PWs)   bands (ev):

   -94.1179 -94.1126 -47.7016 -47.2051 -46.9575 -46.9575 -45.8675 -45.8675
    14.6729  16.8230  17.0960  17.0960  18.1742  18.1742  21.7455  21.7455
    22.0870  22.0870  22.9212  27.4530

     occupation numbers 
     1.0000   1.0000   1.0000   1.0000   1.0000   1.0000   1.0000   1.0000
     1.0000   1.0000   1.0000   1.0000   1.0000   1.0000   0.0010   0.0010
     0.0000   0.0000   0.0000   0.0000

          k = 0.3125 0.3125 0.4375 (   332 PWs)   bands (ev):

   -94.1170 -94.1125 -47.3521 -47.2161 -47.1117 -46.7781 -46.6997 -46.6220
    15.6441  16.1034  16.9766  17.1102  17.2715  17.4628  21.7640  21.8790
    21.9908  22.1509  25.8386  26.9636

     occupation numbers 
     1.0000   1.0000   1.0000   1.0000   1.0000   1.0000   1.0000   1.0000
     1.0000   1.0000   1.0000   1.0000   1.0000   1.0000   0.0005   0.0000
     0.0000   0.0000   0.0000   0.0000

          k = 0.3125 0.4375 0.4375 (   330 PWs)   bands (ev):

   -94.1160 -94.1114 -47.2700 -47.1652 -47.0382 -46.8587 -46.7865 -46.2043
    16.0759  16.3688  16.7335  16.9865  17.4213  17.9582  22.0185  22.0645
    22.0797  22.1111  26.8055  27.1288

     occupation numbers 
     1.0000   1.0000   1.0000   1.0000   1.0000   1.0000   1.0000   1.0000
     1.0000   1.0000   1.0000   1.0000   1.0000   1.0000   0.0000   0.0000
     0.0000   0.0000   0.0000   0.0000

          k = 0.4375 0.4375 0.4375 (   326 PWs)   bands (ev):

   -94.1160 -94.1114 -47.1939 -46.8921 -46.8921 -46.8077 -45.9445 -45.9445
    16.7460  16.8088  16.8088  17.1467  17.8407  17.8407  22.2595  22.2595
    22.4704  22.4704  26.4886  26.6015

     occupation numbers 
     1.0000   1.0000   1.0000   1.0000   1.0000   1.0000   1.0000   1.0000
     1.0000   1.0000   1.0000   1.0000   1.0000   1.0000   0.0000   0.0000
     0.0000   0.0000   0.0000   0.0000

     the Fermi energy is    21.5012 ev

!    total energy              =    -480.47700464 Ry
     Harris-Foulkes estimate   =    -480.47700411 Ry
     estimated scf accuracy    <       0.00000034 Ry

     The total energy is the sum of the following terms:

     one-electron contribution =    -159.85766245 Ry
     hartree contribution      =      87.49869043 Ry
     xc contribution           =     -64.33819756 Ry
     ewald contribution        =    -343.77998641 Ry
     smearing contrib. (-TS)   =       0.00015136 Ry

     total magnetization       =     -0.000295 Bohr mag/cell
     absolute magnetization    =      0.008622 Bohr mag/cell

     convergence has been achieved in  27 iterations

     Writing output data file pwscf.afm.save/

     init_run     :      0.23s CPU      0.28s WALL (       1 calls)
     electrons    :     16.44s CPU     17.73s WALL (       1 calls)

     Called by init_run:
     wfcinit      :      0.12s CPU      0.13s WALL (       1 calls)
     wfcinit:atom :      0.00s CPU      0.00s WALL (      40 calls)
     wfcinit:wfcr :      0.12s CPU      0.12s WALL (      40 calls)
     potinit      :      0.02s CPU      0.02s WALL (       1 calls)
     hinit0       :      0.07s CPU      0.07s WALL (       1 calls)

     Called by electrons:
     c_bands      :     14.72s CPU     15.81s WALL (      27 calls)
     sum_band     :      1.31s CPU      1.45s WALL (      27 calls)
     v_of_rho     :      0.35s CPU      0.37s WALL (      28 calls)
     v_h          :      0.01s CPU      0.01s WALL (      28 calls)
     v_xc         :      0.35s CPU      0.37s WALL (      28 calls)
     mix_rho      :      0.04s CPU      0.04s WALL (      27 calls)

     Called by c_bands:
     init_us_2    :      0.13s CPU      0.13s WALL (    2200 calls)
     cegterg      :     14.41s CPU     15.48s WALL (    1080 calls)

     Called by sum_band:

     Called by *egterg:
     h_psi        :      7.53s CPU      8.13s WALL (    3939 calls)
     g_psi        :      0.02s CPU      0.02s WALL (    2819 calls)
     cdiaghg      :      4.68s CPU      4.98s WALL (    3899 calls)
     cegterg:over :      1.14s CPU      1.24s WALL (    2819 calls)
     cegterg:upda :      0.45s CPU      0.48s WALL (    2819 calls)
     cegterg:last :      0.25s CPU      0.26s WALL (    1114 calls)

     Called by h_psi:
     h_psi:pot    :      7.51s CPU      8.11s WALL (    3939 calls)
     h_psi:calbec :      0.66s CPU      0.72s WALL (    3939 calls)
     vloc_psi     :      6.32s CPU      6.82s WALL (    3939 calls)
     add_vuspsi   :      0.51s CPU      0.55s WALL (    3939 calls)

     General routines
     calbec       :      0.66s CPU      0.71s WALL (    3939 calls)
     fft          :      0.14s CPU      0.14s WALL (     638 calls)
     ffts         :      0.01s CPU      0.01s WALL (     110 calls)
     fftw         :      7.02s CPU      7.62s WALL (  142744 calls)
     interpolate  :      0.02s CPU      0.02s WALL (      56 calls)

     Parallel routines
     fft_scatt_xy :      0.62s CPU      0.66s WALL (  143492 calls)
     fft_scatt_yz :      1.58s CPU      1.76s WALL (  143492 calls)

     PWSCF        :     17.06s CPU     18.44s WALL


   This run was terminated on:  13:11: 9   7Mar2020            

=------------------------------------------------------------------------------=
   JOB DONE.
=------------------------------------------------------------------------------=
