
     Program PWSCF v.6.4.1 starts on  7Mar2020 at 13:42:15 

     This program is part of the open-source Quantum ESPRESSO suite
     for quantum simulation of materials; please cite
         "P. Giannozzi et al., J. Phys.:Condens. Matter 21 395502 (2009);
         "P. Giannozzi et al., J. Phys.:Condens. Matter 29 465901 (2017);
          URL http://www.quantum-espresso.org", 
     in publications or presentations arising from this work. More details at
     http://www.quantum-espresso.org/quote

     Parallel version (MPI), running on     4 processors

     MPI processes distributed on     1 nodes
     R & G space division:  proc/nbgrp/npool/nimage =       4
     Reading input from pw.fe_fm.nscf.in
 CNQ. ====== check read_namelists from qe

     Current dimensions of program PWSCF are:
     Max number of different atomic species (ntypx) = 10
     Max number of k-points (npk) =  40000
     Max angular momentum in pseudopotentials (lmaxx) =  3

     Atomic positions and unit cell read from directory:
     ./pwscf.save/


     Subspace diagonalization in iterative solution of the eigenvalue problem:
     a serial algorithm will be used


     Parallelization info
     --------------------
     sticks:   dense  smooth     PW     G-vecs:    dense   smooth      PW
     Min         133     133     42                 1950     1950     352
     Max         134     134     43                 1951     1951     353
     Sum         535     535    169                 7803     7803    1409



     bravais-lattice index     =            3
     lattice parameter (alat)  =       5.4200  a.u.
     unit-cell volume          =      79.6100 (a.u.)^3
     number of atoms/cell      =            1
     number of atomic types    =            1
     number of electrons       =        16.00
     number of Kohn-Sham states=           12
     kinetic-energy cutoff     =      80.0000  Ry
     charge density cutoff     =     320.0000  Ry
     Exchange-correlation      = PBE ( 1  4  3  4 0 0)

     celldm(1)=   5.420000  celldm(2)=   0.000000  celldm(3)=   0.000000
     celldm(4)=   0.000000  celldm(5)=   0.000000  celldm(6)=   0.000000

     crystal axes: (cart. coord. in units of alat)
               a(1) = (   0.500000   0.500000   0.500000 )  
               a(2) = (  -0.500000   0.500000   0.500000 )  
               a(3) = (  -0.500000  -0.500000   0.500000 )  

     reciprocal axes: (cart. coord. in units 2 pi/alat)
               b(1) = (  1.000000  0.000000  1.000000 )  
               b(2) = ( -1.000000  1.000000  0.000000 )  
               b(3) = (  0.000000 -1.000000  1.000000 )  


     PseudoPot. # 1 for Fe read from file:
     /home/cndaqiang/ONCVPSP/abinit/Fe_ONCV_PBE_sr.upf
     MD5 check sum: 8a3ef102c9e621c5cfc5a416823ffecc
     Pseudo is Norm-conserving + core correction, Zval = 16.0
     Generated using ONCVPSP code by D. R. Hamann
     Using radial grid of 1426 points,  6 beta functions with: 
                l(1) =   0
                l(2) =   0
                l(3) =   1
                l(4) =   1
                l(5) =   2
                l(6) =   2

     atomic species   valence    mass     pseudopotential
        Fe            16.00     1.00000     Fe( 1.00)

     Starting magnetic structure 
     atomic species   magnetization
        Fe           0.600

     48 Sym. Ops., with inversion, found



   Cartesian axes

     site n.     atom                  positions (alat units)
         1           Fe  tau(   1) = (   0.0000000   0.0000000   0.0000000  )

     number of k points=    68 (tetrahedron method)
                       cart. coord. in units 2pi/alat
        k(    1) = (   0.0000000   0.0000000   0.0833333), wk =   0.0034722
        k(    2) = (   0.0000000  -0.0833333   0.1666667), wk =   0.0138889
        k(    3) = (   0.0000000  -0.1666667   0.2500000), wk =   0.0138889
        k(    4) = (   0.0000000  -0.2500000   0.3333333), wk =   0.0138889
        k(    5) = (   0.0000000  -0.3333333   0.4166667), wk =   0.0138889
        k(    6) = (   0.0000000  -0.4166667   0.5000000), wk =   0.0138889
        k(    7) = (  -0.0833333   0.0833333   0.0833333), wk =   0.0046296
        k(    8) = (  -0.0833333  -0.0833333   0.2500000), wk =   0.0138889
        k(    9) = (  -0.0833333  -0.1666667   0.3333333), wk =   0.0277778
        k(   10) = (  -0.0833333  -0.2500000   0.4166667), wk =   0.0277778
        k(   11) = (  -0.0833333  -0.3333333   0.5000000), wk =   0.0277778
        k(   12) = (  -0.0833333   0.5833333  -0.4166667), wk =   0.0138889
        k(   13) = (  -0.1666667   0.1666667   0.0833333), wk =   0.0138889
        k(   14) = (  -0.1666667  -0.1666667   0.4166667), wk =   0.0138889
        k(   15) = (  -0.1666667  -0.2500000   0.5000000), wk =   0.0277778
        k(   16) = (  -0.1666667   0.6666667  -0.4166667), wk =   0.0277778
        k(   17) = (  -0.2500000   0.2500000   0.0833333), wk =   0.0138889
        k(   18) = (  -0.2500000   0.1666667   0.1666667), wk =   0.0138889
        k(   19) = (  -0.2500000   0.7500000  -0.4166667), wk =   0.0138889
        k(   20) = (  -0.2500000   0.6666667  -0.3333333), wk =   0.0138889
        k(   21) = (  -0.3333333   0.3333333   0.0833333), wk =   0.0138889
        k(   22) = (  -0.3333333   0.2500000   0.1666667), wk =   0.0277778
        k(   23) = (  -0.4166667   0.4166667   0.0833333), wk =   0.0138889
        k(   24) = (  -0.4166667   0.3333333   0.1666667), wk =   0.0277778
        k(   25) = (  -0.4166667   0.2500000   0.2500000), wk =   0.0138889
        k(   26) = (   0.5000000  -0.5000000   0.0833333), wk =   0.0069444
        k(   27) = (   0.5000000  -0.5833333   0.1666667), wk =   0.0277778
        k(   28) = (   0.5000000  -0.6666667   0.2500000), wk =   0.0277778
        k(   29) = (   0.4166667  -0.5833333   0.2500000), wk =   0.0138889
        k(   30) = (   0.4166667  -0.6666667   0.3333333), wk =   0.0138889
        k(   31) = (   0.0000000   0.0000000   0.2500000), wk =   0.0034722
        k(   32) = (   0.0000000  -0.0833333   0.3333333), wk =   0.0138889
        k(   33) = (   0.0000000  -0.1666667   0.4166667), wk =   0.0138889
        k(   34) = (   0.0000000  -0.2500000   0.5000000), wk =   0.0138889
        k(   35) = (   0.0000000  -0.3333333   0.5833333), wk =   0.0138889
        k(   36) = (  -0.0833333  -0.0833333   0.4166667), wk =   0.0138889
        k(   37) = (  -0.0833333  -0.1666667   0.5000000), wk =   0.0277778
        k(   38) = (  -0.0833333  -0.2500000   0.5833333), wk =   0.0277778
        k(   39) = (  -0.0833333   0.6666667  -0.3333333), wk =   0.0138889
        k(   40) = (  -0.1666667  -0.1666667   0.5833333), wk =   0.0138889
        k(   41) = (  -0.1666667   0.7500000  -0.3333333), wk =   0.0277778
        k(   42) = (  -0.2500000   0.2500000   0.2500000), wk =   0.0046296
        k(   43) = (  -0.2500000   0.7500000  -0.2500000), wk =   0.0046296
        k(   44) = (  -0.3333333   0.3333333   0.2500000), wk =   0.0138889
        k(   45) = (   0.5833333  -0.5833333   0.2500000), wk =   0.0138889
        k(   46) = (   0.5833333  -0.6666667   0.3333333), wk =   0.0138889
        k(   47) = (   0.5000000  -0.5000000   0.2500000), wk =   0.0069444
        k(   48) = (   0.5000000  -0.5833333   0.3333333), wk =   0.0277778
        k(   49) = (   0.4166667  -0.5833333   0.4166667), wk =   0.0046296
        k(   50) = (   0.0000000   0.0000000   0.4166667), wk =   0.0034722
        k(   51) = (   0.0000000  -0.0833333   0.5000000), wk =   0.0138889
        k(   52) = (   0.0000000  -0.1666667   0.5833333), wk =   0.0138889
        k(   53) = (   0.0000000  -0.2500000   0.6666667), wk =   0.0138889
        k(   54) = (  -0.0833333  -0.0833333   0.5833333), wk =   0.0138889
        k(   55) = (  -0.0833333  -0.1666667   0.6666667), wk =   0.0277778
        k(   56) = (  -0.0833333   0.7500000  -0.2500000), wk =   0.0138889
        k(   57) = (  -0.1666667   0.8333333  -0.2500000), wk =   0.0138889
        k(   58) = (   0.5833333  -0.5833333   0.4166667), wk =   0.0046296
        k(   59) = (   0.5000000  -0.5000000   0.4166667), wk =   0.0069444
        k(   60) = (   0.0000000   0.0000000   0.5833333), wk =   0.0034722
        k(   61) = (   0.0000000  -0.0833333   0.6666667), wk =   0.0138889
        k(   62) = (   0.0000000  -0.1666667   0.7500000), wk =   0.0138889
        k(   63) = (  -0.0833333  -0.0833333   0.7500000), wk =   0.0138889
        k(   64) = (  -0.0833333   0.8333333  -0.1666667), wk =   0.0138889
        k(   65) = (   0.0000000   0.0000000   0.7500000), wk =   0.0034722
        k(   66) = (   0.0000000  -0.0833333   0.8333333), wk =   0.0138889
        k(   67) = (  -0.0833333   0.9166667  -0.0833333), wk =   0.0046296
        k(   68) = (   0.0000000   0.0000000   0.9166667), wk =   0.0034722

     Dense  grid:     7803 G-vectors     FFT dimensions: (  27,  27,  27)

     Estimated max dynamical RAM per process >       2.67 MB

     Estimated total dynamical RAM >      10.68 MB
     Generating pointlists ...
     new r_m :   0.3572 (alat units)  1.9362 (a.u.) for type    1

     The potential is recalculated from file :
     ./pwscf.save/charge-density

     Starting wfcs are   10 randomized atomic wfcs +    2 random wfcs

     Band Structure Calculation
     Davidson diagonalization with overlap

     ethr =  6.25E-09,  avg # of iterations =  9.3

     total cpu time spent up to now is        7.6 secs

     End of band structure calculation

     Number of k-points >= 100: set verbosity='high' to print the bands.

     the Fermi energy is    17.6166 ev

     Writing output data file pwscf.save/

     init_run     :      0.08s CPU      0.10s WALL (       1 calls)
     electrons    :      6.23s CPU      7.00s WALL (       1 calls)

     Called by init_run:
     wfcinit      :      0.00s CPU      0.00s WALL (       1 calls)
     potinit      :      0.02s CPU      0.02s WALL (       1 calls)
     hinit0       :      0.06s CPU      0.06s WALL (       1 calls)

     Called by electrons:
     c_bands      :      5.91s CPU      6.66s WALL (       1 calls)
     v_of_rho     :      0.01s CPU      0.02s WALL (       1 calls)

     Called by c_bands:
     init_us_2    :      0.02s CPU      0.02s WALL (     136 calls)
     cegterg      :      5.26s CPU      5.90s WALL (     136 calls)

     Called by sum_band:

     Called by *egterg:
     h_psi        :      4.04s CPU      4.57s WALL (    1531 calls)
     g_psi        :      0.01s CPU      0.01s WALL (    1259 calls)
     cdiaghg      :      0.84s CPU      0.95s WALL (    1395 calls)

     Called by h_psi:
     h_psi:pot    :      4.03s CPU      4.56s WALL (    1531 calls)
     h_psi:calbec :      0.17s CPU      0.19s WALL (    1531 calls)
     vloc_psi     :      3.73s CPU      4.23s WALL (    1531 calls)
     add_vuspsi   :      0.12s CPU      0.13s WALL (    1531 calls)

     General routines
     calbec       :      0.17s CPU      0.19s WALL (    1531 calls)
     fft          :      0.00s CPU      0.00s WALL (      19 calls)
     fftw         :      3.54s CPU      4.02s WALL (   24910 calls)
     davcio       :      0.01s CPU      0.01s WALL (     272 calls)

     Parallel routines
     fft_scatt_xy :      0.25s CPU      0.27s WALL (   24929 calls)
     fft_scatt_yz :      0.82s CPU      1.05s WALL (   24929 calls)

     PWSCF        :      6.85s CPU      7.70s WALL


   This run was terminated on:  13:42:23   7Mar2020            

=------------------------------------------------------------------------------=
   JOB DONE.
=------------------------------------------------------------------------------=
