
     Program BANDS v.6.4.1 starts on  7Mar2020 at  0:24:47 

     This program is part of the open-source Quantum ESPRESSO suite
     for quantum simulation of materials; please cite
         "P. Giannozzi et al., J. Phys.:Condens. Matter 21 395502 (2009);
         "P. Giannozzi et al., J. Phys.:Condens. Matter 29 465901 (2017);
          URL http://www.quantum-espresso.org", 
     in publications or presentations arising from this work. More details at
     http://www.quantum-espresso.org/quote

     Parallel version (MPI), running on     1 processors

     MPI processes distributed on     1 nodes

     Reading data from directory:
     ./pwscf.save/

     IMPORTANT: XC functional enforced from input :
     Exchange-correlation      = PBE ( 1  4  3  4 0 0)
     Any further DFT definition will be discarded
     Please, verify this is what you really want


     G-vector sticks info
     --------------------
     sticks:   dense  smooth     PW     G-vecs:    dense   smooth      PW
     Sum         301     121     37                12531     3147     647

     high-symmetry point:  0.0000 0.0000 0.0000   x coordinate   0.0000
     high-symmetry point:  0.6667 0.0000 0.0000   x coordinate   0.6667
     high-symmetry point:  0.5000-0.2887 0.0000   x coordinate   1.0000

     Plottable bands (eV) written to file graphene.bands.dat.gnu
     Bands written to file graphene.bands.dat

 **************************************************************************

                    xk=(   0.00000,   0.00000,   0.00000  )

     point group D_6h(6/mmm)
     there are 12 classes
     the character table:

       E     2C6   2C3   C2    3C2'  3C2'' i     2S3   2S6   s_h   3s_d  3s_v 
A_1g   1.00  1.00  1.00  1.00  1.00  1.00  1.00  1.00  1.00  1.00  1.00  1.00
A_2g   1.00  1.00  1.00  1.00 -1.00 -1.00  1.00  1.00  1.00  1.00 -1.00 -1.00
B_1g   1.00 -1.00  1.00 -1.00  1.00 -1.00  1.00 -1.00  1.00 -1.00  1.00 -1.00
B_2g   1.00 -1.00  1.00 -1.00 -1.00  1.00  1.00 -1.00  1.00 -1.00 -1.00  1.00
E_1g   2.00  1.00 -1.00 -2.00  0.00  0.00  2.00  1.00 -1.00 -2.00  0.00  0.00
E_2g   2.00 -1.00 -1.00  2.00  0.00  0.00  2.00 -1.00 -1.00  2.00  0.00  0.00
A_1u   1.00  1.00  1.00  1.00  1.00  1.00 -1.00 -1.00 -1.00 -1.00 -1.00 -1.00
A_2u   1.00  1.00  1.00  1.00 -1.00 -1.00 -1.00 -1.00 -1.00 -1.00  1.00  1.00
B_1u   1.00 -1.00  1.00 -1.00  1.00 -1.00 -1.00  1.00 -1.00  1.00 -1.00  1.00
B_2u   1.00 -1.00  1.00 -1.00 -1.00  1.00 -1.00  1.00 -1.00  1.00  1.00 -1.00
E_1u   2.00  1.00 -1.00 -2.00  0.00  0.00 -2.00 -1.00  1.00  2.00  0.00  0.00
E_2u   2.00 -1.00 -1.00  2.00  0.00  0.00 -2.00  1.00  1.00 -2.00  0.00  0.00

     the symmetry operations in each class and the name of the first element:

     E        1
                                                                 
     2C6      5    6
                                                                 
     2C3      7    8
                                                                 
     C2       2
                                                                 
     3C2'     4   12   11
                                                                 
     3C2''    3    9   10
                                                                 
     i       13
                                                                 
     2S3     17   18
                                                                 
     2S6     19   20
                                                                 
     s_h     14
                                                                 
     3s_d    16   24   23
                                                                 
     3s_v    15   21   22
                                                                 

     Band symmetry, D_6h(6/mmm) point group:

     e(  1 -  1) =    -18.95609  eV     1   --> A_1g           
     e(  2 -  2) =     -6.56455  eV     1   --> A_2u           
     e(  3 -  4) =     -1.68214  eV     2   --> E_2g           
     e(  5 -  5) =      3.89060  eV     1   --> A_1g           
     e(  6 -  6) =      7.41419  eV     1   --> A_2u           
     e(  7 -  7) =      9.47047  eV     1   --> A_1g           
     e(  8 -  8) =     10.18021  eV     1   -->   ?

 **************************************************************************

 **************************************************************************

                    xk=(   0.01667,   0.00000,   0.00000  )

     point group C_2v (mm2) 
     there are  4 classes
     the character table:

       E     C2    s_v   s_v' 
A_1    1.00  1.00  1.00  1.00
A_2    1.00  1.00 -1.00 -1.00
B_1    1.00 -1.00  1.00 -1.00
B_2    1.00 -1.00 -1.00  1.00

     the symmetry operations in each class and the name of the first element:

     E        1
                                                                 
     C2       2
                                                                 
     s_v      4
                                                                 
     s_v'     3
                                                                 

     Band symmetry, C_2v (mm2)  point group:

     e(  1 -  1) =    -18.95063  eV     1   --> A_1  D_1  S_1  
     e(  2 -  2) =     -6.55843  eV     1   --> B_1  D_3  S_3  
     e(  3 -  3) =     -1.70577  eV     1   --> B_2  D_4  S_4  
     e(  4 -  4) =     -1.69329  eV     1   --> A_1  D_1  S_1  
     e(  5 -  5) =      3.89737  eV     1   --> A_1  D_1  S_1  
     e(  6 -  6) =      7.42071  eV     1   --> B_1  D_3  S_3  
     e(  7 -  7) =      9.47671  eV     1   --> A_1  D_1  S_1  
     e(  8 -  8) =     10.18022  eV     1   --> A_1  D_1  S_1  

 **************************************************************************

 **************************************************************************

                    xk=(   0.03333,   0.00000,   0.00000  )

     Band symmetry, C_2v (mm2)  point group:

     e(  1 -  1) =    -18.93982  eV     1   --> A_1  D_1  S_1  
     e(  2 -  2) =     -6.54248  eV     1   --> B_1  D_3  S_3  
     e(  3 -  3) =     -1.86702  eV     1   --> B_2  D_4  S_4  
     e(  4 -  4) =     -1.73417  eV     1   --> A_1  D_1  S_1  
     e(  5 -  5) =      3.91734  eV     1   --> A_1  D_1  S_1  
     e(  6 -  6) =      7.43953  eV     1   --> B_1  D_3  S_3  
     e(  7 -  7) =      9.49410  eV     1   --> A_1  D_1  S_1  
     e(  8 -  8) =     10.15433  eV     1   --> A_1  D_1  S_1  

 **************************************************************************

 **************************************************************************

                    xk=(   0.05000,   0.00000,   0.00000  )

     Band symmetry, C_2v (mm2)  point group:

     e(  1 -  1) =    -18.92482  eV     1   --> A_1  D_1  S_1  
     e(  2 -  2) =     -6.52732  eV     1   --> B_1  D_3  S_3  
     e(  3 -  3) =     -1.97124  eV     1   --> B_2  D_4  S_4  
     e(  4 -  4) =     -1.83638  eV     1   --> A_1  D_1  S_1  
     e(  5 -  5) =      3.95056  eV     1   --> A_1  D_1  S_1  
     e(  6 -  6) =      7.46703  eV     1   --> B_1  D_3  S_3  
     e(  7 -  7) =      9.52212  eV     1   --> A_1  D_1  S_1  
     e(  8 -  8) =     10.13706  eV     1   --> A_1  D_1  S_1  

 **************************************************************************

 **************************************************************************

                    xk=(   0.06667,   0.00000,   0.00000  )

     Band symmetry, C_2v (mm2)  point group:

     e(  1 -  1) =    -18.88789  eV     1   --> A_1  D_1  S_1  
     e(  2 -  2) =     -6.48523  eV     1   --> B_1  D_3  S_3  
     e(  3 -  3) =     -2.12006  eV     1   --> B_2  D_4  S_4  
     e(  4 -  4) =     -1.91694  eV     1   --> A_1  D_1  S_1  
     e(  5 -  5) =      3.99787  eV     1   --> A_1  D_1  S_1  
     e(  6 -  6) =      7.51234  eV     1   --> B_1  D_3  S_3  
     e(  7 -  7) =      9.56438  eV     1   --> A_1  D_1  S_1  
     e(  8 -  8) =     10.14716  eV     1   --> A_1  D_1  S_1  

 **************************************************************************

 **************************************************************************

                    xk=(   0.08333,   0.00000,   0.00000  )

     Band symmetry, C_2v (mm2)  point group:

     e(  1 -  1) =    -18.86659  eV     1   --> A_1  D_1  S_1  
     e(  2 -  2) =     -6.47326  eV     1   --> B_1  D_3  S_3  
     e(  3 -  3) =     -2.30792  eV     1   --> B_2  D_4  S_4  
     e(  4 -  4) =     -2.10965  eV     1   --> A_1  D_1  S_1  
     e(  5 -  5) =      4.05753  eV     1   --> A_1  D_1  S_1  
     e(  6 -  6) =      7.55710  eV     1   --> B_1  D_3  S_3  
     e(  7 -  7) =      9.61465  eV     1   --> A_1  D_1  S_1  
     e(  8 -  8) =     10.15284  eV     1   --> A_1  D_1  S_1  

 **************************************************************************

 **************************************************************************

                    xk=(   0.10000,   0.00000,   0.00000  )

     Band symmetry, C_2v (mm2)  point group:

     e(  1 -  1) =    -18.80842  eV     1   --> A_1  D_1  S_1  
     e(  2 -  2) =     -6.40740  eV     1   --> B_1  D_3  S_3  
     e(  3 -  3) =     -2.52574  eV     1   --> B_2  D_4  S_4  
     e(  4 -  4) =     -2.23041  eV     1   --> A_1  D_1  S_1  
     e(  5 -  5) =      4.13188  eV     1   --> A_1  D_1  S_1  
     e(  6 -  6) =      7.62810  eV     1   --> B_1  D_3  S_3  
     e(  7 -  7) =      9.67963  eV     1   --> A_1  D_1  S_1  
     e(  8 -  8) =     10.17209  eV     1   --> A_1  D_1  S_1  

 **************************************************************************

 **************************************************************************

                    xk=(   0.11667,   0.00000,   0.00000  )

     Band symmetry, C_2v (mm2)  point group:

     e(  1 -  1) =    -18.73622  eV     1   --> A_1  D_1  S_1  
     e(  2 -  2) =     -6.32803  eV     1   --> B_1  D_3  S_3  
     e(  3 -  3) =     -2.66289  eV     1   --> B_2  D_4  S_4  
     e(  4 -  4) =     -2.36915  eV     1   --> A_1  D_1  S_1  
     e(  5 -  5) =      4.21991  eV     1   --> A_1  D_1  S_1  
     e(  6 -  6) =      7.71235  eV     1   --> B_1  D_3  S_3  
     e(  7 -  7) =      9.75652  eV     1   --> A_1  D_1  S_1  
     e(  8 -  8) =     10.24038  eV     1   --> A_1  D_1  S_1  

 **************************************************************************

 **************************************************************************

                    xk=(   0.13333,   0.00000,   0.00000  )

     Band symmetry, C_2v (mm2)  point group:

     e(  1 -  1) =    -18.65657  eV     1   --> A_1  D_1  S_1  
     e(  2 -  2) =     -6.23817  eV     1   --> B_1  D_3  S_3  
     e(  3 -  3) =     -2.93642  eV     1   --> B_2  D_4  S_4  
     e(  4 -  4) =     -2.52764  eV     1   --> A_1  D_1  S_1  
     e(  5 -  5) =      4.32134  eV     1   --> A_1  D_1  S_1  
     e(  6 -  6) =      7.80900  eV     1   --> B_1  D_3  S_3  
     e(  7 -  7) =      9.84271  eV     1   --> A_1  D_1  S_1  
     e(  8 -  8) =     10.27526  eV     1   --> A_1  D_1  S_1  

 **************************************************************************

 **************************************************************************

                    xk=(   0.15000,   0.00000,   0.00000  )

     Band symmetry, C_2v (mm2)  point group:

     e(  1 -  1) =    -18.56606  eV     1   --> A_1  D_1  S_1  
     e(  2 -  2) =     -6.13639  eV     1   --> B_1  D_3  S_3  
     e(  3 -  3) =     -3.22943  eV     1   --> B_2  D_4  S_4  
     e(  4 -  4) =     -2.70309  eV     1   --> A_1  D_1  S_1  
     e(  5 -  5) =      4.43630  eV     1   --> A_1  D_1  S_1  
     e(  6 -  6) =      7.91836  eV     1   --> B_1  D_3  S_3  
     e(  7 -  7) =      9.93724  eV     1   --> A_1  D_1  S_1  
     e(  8 -  8) =     10.32283  eV     1   --> A_1  D_1  S_1  

 **************************************************************************

 **************************************************************************

                    xk=(   0.16667,   0.00000,   0.00000  )

     Band symmetry, C_2v (mm2)  point group:

     e(  1 -  1) =    -18.46147  eV     1   --> A_1  D_1  S_1  
     e(  2 -  2) =     -6.02129  eV     1   --> B_1  D_3  S_3  
     e(  3 -  3) =     -3.48504  eV     1   --> B_2  D_4  S_4  
     e(  4 -  4) =     -2.86436  eV     1   --> A_1  D_1  S_1  
     e(  5 -  5) =      4.56490  eV     1   --> A_1  D_1  S_1  
     e(  6 -  6) =      8.04075  eV     1   --> B_1  D_3  S_3  
     e(  7 -  7) =     10.04780  eV     1   --> A_1  D_1  S_1  
     e(  8 -  8) =     10.43776  eV     1   --> A_1  D_1  S_1  

 **************************************************************************

 **************************************************************************

                    xk=(   0.18333,   0.00000,   0.00000  )

     Band symmetry, C_2v (mm2)  point group:

     e(  1 -  1) =    -18.36487  eV     1   --> A_1  D_1  S_1  
     e(  2 -  2) =     -5.89591  eV     1   --> B_1  D_3  S_3  
     e(  3 -  3) =     -3.80962  eV     1   --> B_2  D_4  S_4  
     e(  4 -  4) =     -3.07644  eV     1   --> A_1  D_1  S_1  
     e(  5 -  5) =      4.70561  eV     1   --> A_1  D_1  S_1  
     e(  6 -  6) =      8.17526  eV     1   --> B_1  D_3  S_3  
     e(  7 -  7) =     10.14671  eV     1   --> A_1  D_1  S_1  
     e(  8 -  8) =     10.51229  eV     1   --> A_1  D_1  S_1  

 **************************************************************************

 **************************************************************************

                    xk=(   0.20000,   0.00000,   0.00000  )

     Band symmetry, C_2v (mm2)  point group:

     e(  1 -  1) =    -18.28371  eV     1   --> A_1  D_1  S_1  
     e(  2 -  2) =     -5.76240  eV     1   --> B_1  D_3  S_3  
     e(  3 -  3) =     -4.07941  eV     1   --> B_2  D_4  S_4  
     e(  4 -  4) =     -3.31808  eV     1   --> A_1  D_1  S_1  
     e(  5 -  5) =      4.85758  eV     1   --> A_1  D_1  S_1  
     e(  6 -  6) =      8.32089  eV     1   --> B_1  D_3  S_3  
     e(  7 -  7) =     10.24365  eV     1   --> A_1  D_1  S_1  
     e(  8 -  8) =     10.63700  eV     1   --> A_1  D_1  S_1  

 **************************************************************************

 **************************************************************************

                    xk=(   0.21667,   0.00000,   0.00000  )

     Band symmetry, C_2v (mm2)  point group:

     e(  1 -  1) =    -18.15345  eV     1   --> A_1  D_1  S_1  
     e(  2 -  2) =     -5.61398  eV     1   --> B_1  D_3  S_3  
     e(  3 -  3) =     -4.41987  eV     1   --> B_2  D_4  S_4  
     e(  4 -  4) =     -3.55260  eV     1   --> A_1  D_1  S_1  
     e(  5 -  5) =      5.02634  eV     1   --> A_1  D_1  S_1  
     e(  6 -  6) =      8.47991  eV     1   --> B_1  D_3  S_3  
     e(  7 -  7) =     10.36287  eV     1   --> A_1  D_1  S_1  
     e(  8 -  8) =     10.75854  eV     1   --> A_1  D_1  S_1  

 **************************************************************************

 **************************************************************************

                    xk=(   0.23333,   0.00000,   0.00000  )

     Band symmetry, C_2v (mm2)  point group:

     e(  1 -  1) =    -18.01257  eV     1   --> A_1  D_1  S_1  
     e(  2 -  2) =     -5.45414  eV     1   --> B_1  D_3  S_3  
     e(  3 -  3) =     -4.76449  eV     1   --> B_2  D_4  S_4  
     e(  4 -  4) =     -3.79717  eV     1   --> A_1  D_1  S_1  
     e(  5 -  5) =      5.20859  eV     1   --> A_1  D_1  S_1  
     e(  6 -  6) =      8.65092  eV     1   --> B_1  D_3  S_3  
     e(  7 -  7) =     10.48621  eV     1   --> A_1  D_1  S_1  
     e(  8 -  8) =     10.60580  eV     1   --> A_2  D_2  S_2  

 **************************************************************************

 **************************************************************************

                    xk=(   0.25000,   0.00000,   0.00000  )

     Band symmetry, C_2v (mm2)  point group:

     e(  1 -  1) =    -17.85989  eV     1   --> A_1  D_1  S_1  
     e(  2 -  2) =     -5.28284  eV     1   --> B_1  D_3  S_3  
     e(  3 -  3) =     -5.02019  eV     1   --> B_2  D_4  S_4  
     e(  4 -  4) =     -4.05030  eV     1   --> A_1  D_1  S_1  
     e(  5 -  5) =      5.40434  eV     1   --> A_1  D_1  S_1  
     e(  6 -  6) =      8.83372  eV     1   --> B_1  D_3  S_3  
     e(  7 -  7) =     10.21127  eV     1   --> A_2  D_2  S_2  
     e(  8 -  8) =     10.64055  eV     1   --> A_1  D_1  S_1  

 **************************************************************************

 **************************************************************************

                    xk=(   0.26667,   0.00000,   0.00000  )

     Band symmetry, C_2v (mm2)  point group:

     e(  1 -  1) =    -17.73886  eV     1   --> A_1  D_1  S_1  
     e(  2 -  2) =     -5.33696  eV     1   --> B_2  D_4  S_4  
     e(  3 -  3) =     -5.10280  eV     1   --> B_1  D_3  S_3  
     e(  4 -  4) =     -4.31906  eV     1   --> A_1  D_1  S_1  
     e(  5 -  5) =      5.60996  eV     1   --> A_1  D_1  S_1  
     e(  6 -  6) =      9.02719  eV     1   --> B_1  D_3  S_3  
     e(  7 -  7) =      9.80987  eV     1   --> A_2  D_2  S_2  
     e(  8 -  8) =     10.77141  eV     1   --> A_1  D_1  S_1  

 **************************************************************************

 **************************************************************************

                    xk=(   0.28333,   0.00000,   0.00000  )

     Band symmetry, C_2v (mm2)  point group:

     e(  1 -  1) =    -17.56163  eV     1   --> A_1  D_1  S_1  
     e(  2 -  2) =     -5.56652  eV     1   --> B_2  D_4  S_4  
     e(  3 -  3) =     -4.89131  eV     1   --> B_1  D_3  S_3  
     e(  4 -  4) =     -4.48406  eV     1   --> A_1  D_1  S_1  
     e(  5 -  5) =      5.83267  eV     1   --> A_1  D_1  S_1  
     e(  6 -  6) =      9.23806  eV     1   --> B_1  D_3  S_3  
     e(  7 -  7) =      9.49214  eV     1   --> A_2  D_2  S_2  
     e(  8 -  8) =     11.00132  eV     1   --> A_1  D_1  S_1  

 **************************************************************************

 **************************************************************************

                    xk=(   0.30000,   0.00000,   0.00000  )

     Band symmetry, C_2v (mm2)  point group:

     e(  1 -  1) =    -17.38149  eV     1   --> A_1  D_1  S_1  
     e(  2 -  2) =     -5.91825  eV     1   --> B_2  D_4  S_4  
     e(  3 -  3) =     -4.75977  eV     1   --> A_1  D_1  S_1  
     e(  4 -  4) =     -4.68762  eV     1   --> B_1  D_3  S_3  
     e(  5 -  5) =      6.06850  eV     1   --> A_1  D_1  S_1  
     e(  6 -  6) =      9.08056  eV     1   --> A_2  D_2  S_2  
     e(  7 -  7) =      9.45368  eV     1   --> B_1  D_3  S_3  
     e(  8 -  8) =     11.16431  eV     1   --> A_1  D_1  S_1  

 **************************************************************************

 **************************************************************************

                    xk=(   0.31667,   0.00000,   0.00000  )

     Band symmetry, C_2v (mm2)  point group:

     e(  1 -  1) =    -17.19884  eV     1   --> A_1  D_1  S_1  
     e(  2 -  2) =     -6.27351  eV     1   --> B_2  D_4  S_4  
     e(  3 -  3) =     -5.08692  eV     1   --> A_1  D_1  S_1  
     e(  4 -  4) =     -4.47779  eV     1   --> B_1  D_3  S_3  
     e(  5 -  5) =      6.31736  eV     1   --> A_1  D_1  S_1  
     e(  6 -  6) =      8.63373  eV     1   --> A_2  D_2  S_2  
     e(  7 -  7) =      9.67737  eV     1   --> B_1  D_3  S_3  
     e(  8 -  8) =     11.32982  eV     1   --> A_1  D_1  S_1  

 **************************************************************************

 **************************************************************************

                    xk=(   0.33333,   0.00000,   0.00000  )

     Band symmetry, C_2v (mm2)  point group:

     e(  1 -  1) =    -16.99839  eV     1   --> A_1  D_1  S_1  
     e(  2 -  2) =     -6.61717  eV     1   --> B_2  D_4  S_4  
     e(  3 -  3) =     -5.36744  eV     1   --> A_1  D_1  S_1  
     e(  4 -  4) =     -4.25359  eV     1   --> B_1  D_3  S_3  
     e(  5 -  5) =      6.57991  eV     1   --> A_1  D_1  S_1  
     e(  6 -  6) =      8.22295  eV     1   --> A_2  D_2  S_2  
     e(  7 -  7) =      9.91162  eV     1   --> B_1  D_3  S_3  
     e(  8 -  8) =     11.50728  eV     1   --> A_1  D_1  S_1  

 **************************************************************************

 **************************************************************************

                    xk=(   0.35000,   0.00000,   0.00000  )

     Band symmetry, C_2v (mm2)  point group:

     e(  1 -  1) =    -16.78786  eV     1   --> A_1  D_1  S_1  
     e(  2 -  2) =     -6.95603  eV     1   --> B_2  D_4  S_4  
     e(  3 -  3) =     -5.64896  eV     1   --> A_1  D_1  S_1  
     e(  4 -  4) =     -4.01951  eV     1   --> B_1  D_3  S_3  
     e(  5 -  5) =      6.85578  eV     1   --> A_1  D_1  S_1  
     e(  6 -  6) =      7.81446  eV     1   --> A_2  D_2  S_2  
     e(  7 -  7) =     10.15361  eV     1   --> B_1  D_3  S_3  
     e(  8 -  8) =     11.69367  eV     1   --> A_1  D_1  S_1  

 **************************************************************************

 **************************************************************************

                    xk=(   0.36667,   0.00000,   0.00000  )

     Band symmetry, C_2v (mm2)  point group:

     e(  1 -  1) =    -16.61386  eV     1   --> A_1  D_1  S_1  
     e(  2 -  2) =     -7.25528  eV     1   --> B_2  D_4  S_4  
     e(  3 -  3) =     -5.91956  eV     1   --> A_1  D_1  S_1  
     e(  4 -  4) =     -3.76042  eV     1   --> B_1  D_3  S_3  
     e(  5 -  5) =      7.14068  eV     1   --> A_1  D_1  S_1  
     e(  6 -  6) =      7.41000  eV     1   --> A_2  D_2  S_2  
     e(  7 -  7) =     10.40562  eV     1   --> B_1  D_3  S_3  
     e(  8 -  8) =     11.97035  eV     1   --> A_1  D_1  S_1  

 **************************************************************************

 **************************************************************************

                    xk=(   0.38333,   0.00000,   0.00000  )

     Band symmetry, C_2v (mm2)  point group:

     e(  1 -  1) =    -16.38469  eV     1   --> A_1  D_1  S_1  
     e(  2 -  2) =     -7.50102  eV     1   --> B_2  D_4  S_4  
     e(  3 -  3) =     -6.17316  eV     1   --> A_1  D_1  S_1  
     e(  4 -  4) =     -3.50114  eV     1   --> B_1  D_3  S_3  
     e(  5 -  5) =      7.03515  eV     1   --> A_2  D_2  S_2  
     e(  6 -  6) =      7.44280  eV     1   --> A_1  D_1  S_1  
     e(  7 -  7) =     10.65923  eV     1   --> B_1  D_3  S_3  
     e(  8 -  8) =     12.20633  eV     1   --> A_1  D_1  S_1  

 **************************************************************************

 **************************************************************************

                    xk=(   0.40000,   0.00000,   0.00000  )

     Band symmetry, C_2v (mm2)  point group:

     e(  1 -  1) =    -16.14745  eV     1   --> A_1  D_1  S_1  
     e(  2 -  2) =     -7.82604  eV     1   --> B_2  D_4  S_4  
     e(  3 -  3) =     -6.45334  eV     1   --> A_1  D_1  S_1  
     e(  4 -  4) =     -3.24019  eV     1   --> B_1  D_3  S_3  
     e(  5 -  5) =      6.63823  eV     1   --> A_2  D_2  S_2  
     e(  6 -  6) =      7.75804  eV     1   --> A_1  D_1  S_1  
     e(  7 -  7) =     10.91176  eV     1   --> B_1  D_3  S_3  
     e(  8 -  8) =     12.41882  eV     1   --> A_1  D_1  S_1  

 **************************************************************************

 **************************************************************************

                    xk=(   0.41667,   0.00000,   0.00000  )

     Band symmetry, C_2v (mm2)  point group:

     e(  1 -  1) =    -15.91112  eV     1   --> A_1  D_1  S_1  
     e(  2 -  2) =     -8.14513  eV     1   --> B_2  D_4  S_4  
     e(  3 -  3) =     -6.73707  eV     1   --> A_1  D_1  S_1  
     e(  4 -  4) =     -2.97997  eV     1   --> B_1  D_3  S_3  
     e(  5 -  5) =      6.18367  eV     1   --> A_2  D_2  S_2  
     e(  6 -  6) =      8.08560  eV     1   --> A_1  D_1  S_1  
     e(  7 -  7) =     11.15793  eV     1   --> B_1  D_3  S_3  
     e(  8 -  8) =     12.63503  eV     1   --> A_1  D_1  S_1  

 **************************************************************************

 **************************************************************************

                    xk=(   0.43333,   0.00000,   0.00000  )

     Band symmetry, C_2v (mm2)  point group:

     e(  1 -  1) =    -15.66808  eV     1   --> A_1  D_1  S_1  
     e(  2 -  2) =     -8.45859  eV     1   --> B_2  D_4  S_4  
     e(  3 -  3) =     -7.01900  eV     1   --> A_1  D_1  S_1  
     e(  4 -  4) =     -2.70971  eV     1   --> B_1  D_3  S_3  
     e(  5 -  5) =      5.75783  eV     1   --> A_2  D_2  S_2  
     e(  6 -  6) =      8.42585  eV     1   --> A_1  D_1  S_1  
     e(  7 -  7) =     11.39367  eV     1   --> B_1  D_3  S_3  
     e(  8 -  8) =     12.86001  eV     1   --> A_1  D_1  S_1  

 **************************************************************************

 **************************************************************************

                    xk=(   0.45000,   0.00000,   0.00000  )

     Band symmetry, C_2v (mm2)  point group:

     e(  1 -  1) =    -15.40095  eV     1   --> A_1  D_1  S_1  
     e(  2 -  2) =     -8.75415  eV     1   --> B_2  D_4  S_4  
     e(  3 -  3) =     -7.26937  eV     1   --> A_1  D_1  S_1  
     e(  4 -  4) =     -2.41719  eV     1   --> B_1  D_3  S_3  
     e(  5 -  5) =      5.42514  eV     1   --> A_2  D_2  S_2  
     e(  6 -  6) =      8.77981  eV     1   --> A_1  D_1  S_1  
     e(  7 -  7) =     11.61767  eV     1   --> B_1  D_3  S_3  
     e(  8 -  8) =     13.13569  eV     1   --> A_1  D_1  S_1  

 **************************************************************************

 **************************************************************************

                    xk=(   0.46667,   0.00000,   0.00000  )

     Band symmetry, C_2v (mm2)  point group:

     e(  1 -  1) =    -15.12872  eV     1   --> A_1  D_1  S_1  
     e(  2 -  2) =     -9.04888  eV     1   --> B_2  D_4  S_4  
     e(  3 -  3) =     -7.53388  eV     1   --> A_1  D_1  S_1  
     e(  4 -  4) =     -2.12778  eV     1   --> B_1  D_3  S_3  
     e(  5 -  5) =      5.05528  eV     1   --> A_2  D_2  S_2  
     e(  6 -  6) =      9.14640  eV     1   --> A_1  D_1  S_1  
     e(  7 -  7) =     11.80742  eV     1   --> B_1  D_3  S_3  
     e(  8 -  8) =     13.36890  eV     1   --> A_1  D_1  S_1  

 **************************************************************************

 **************************************************************************

                    xk=(   0.48333,   0.00000,   0.00000  )

     Band symmetry, C_2v (mm2)  point group:

     e(  1 -  1) =    -14.84622  eV     1   --> A_1  D_1  S_1  
     e(  2 -  2) =     -9.28488  eV     1   --> B_2  D_4  S_4  
     e(  3 -  3) =     -7.72427  eV     1   --> A_1  D_1  S_1  
     e(  4 -  4) =     -1.83225  eV     1   --> B_1  D_3  S_3  
     e(  5 -  5) =      4.69669  eV     1   --> A_2  D_2  S_2  
     e(  6 -  6) =      9.52554  eV     1   --> A_1  D_1  S_1  
     e(  7 -  7) =     11.95333  eV     1   --> B_1  D_3  S_3  
     e(  8 -  8) =     13.64504  eV     1   --> A_1  D_1  S_1  

 **************************************************************************

 **************************************************************************

                    xk=(   0.50000,   0.00000,   0.00000  )

     Band symmetry, C_2v (mm2)  point group:

     e(  1 -  1) =    -14.55831  eV     1   --> A_1  D_1  S_1  
     e(  2 -  2) =     -9.56395  eV     1   --> B_2  D_4  S_4  
     e(  3 -  3) =     -7.97753  eV     1   --> A_1  D_1  S_1  
     e(  4 -  4) =     -1.53324  eV     1   --> B_1  D_3  S_3  
     e(  5 -  5) =      4.34403  eV     1   --> A_2  D_2  S_2  
     e(  6 -  6) =      9.91669  eV     1   --> A_1  D_1  S_1  
     e(  7 -  7) =     12.04335  eV     1   --> B_1  D_3  S_3  
     e(  8 -  8) =     13.87436  eV     1   --> A_1  D_1  S_1  

 **************************************************************************

 **************************************************************************

                    xk=(   0.51667,   0.00000,   0.00000  )

     Band symmetry, C_2v (mm2)  point group:

     e(  1 -  1) =    -14.32233  eV     1   --> A_1  D_1  S_1  
     e(  2 -  2) =     -9.84007  eV     1   --> B_2  D_4  S_4  
     e(  3 -  3) =     -8.22744  eV     1   --> A_1  D_1  S_1  
     e(  4 -  4) =     -1.24166  eV     1   --> B_1  D_3  S_3  
     e(  5 -  5) =      4.00051  eV     1   --> A_2  D_2  S_2  
     e(  6 -  6) =     10.31361  eV     1   --> A_1  D_1  S_1  
     e(  7 -  7) =     12.06883  eV     1   --> B_1  D_3  S_3  
     e(  8 -  8) =     14.09383  eV     1   --> A_1  D_1  S_1  

 **************************************************************************

 **************************************************************************

                    xk=(   0.53333,   0.00000,   0.00000  )

     Band symmetry, C_2v (mm2)  point group:

     e(  1 -  1) =    -14.02365  eV     1   --> A_1  D_1  S_1  
     e(  2 -  2) =    -10.10209  eV     1   --> B_2  D_4  S_4  
     e(  3 -  3) =     -8.46351  eV     1   --> A_1  D_1  S_1  
     e(  4 -  4) =     -0.93810  eV     1   --> B_1  D_3  S_3  
     e(  5 -  5) =      3.66669  eV     1   --> A_2  D_2  S_2  
     e(  6 -  6) =     10.72727  eV     1   --> A_1  D_1  S_1  
     e(  7 -  7) =     12.04425  eV     1   --> B_1  D_3  S_3  
     e(  8 -  8) =     14.29618  eV     1   --> A_1  D_1  S_1  

 **************************************************************************

 **************************************************************************

                    xk=(   0.55000,   0.00000,   0.00000  )

     Band symmetry, C_2v (mm2)  point group:

     e(  1 -  1) =    -13.72020  eV     1   --> A_1  D_1  S_1  
     e(  2 -  2) =    -10.35530  eV     1   --> B_2  D_4  S_4  
     e(  3 -  3) =     -8.68902  eV     1   --> A_1  D_1  S_1  
     e(  4 -  4) =     -0.63408  eV     1   --> B_1  D_3  S_3  
     e(  5 -  5) =      3.34279  eV     1   --> A_2  D_2  S_2  
     e(  6 -  6) =     11.15134  eV     1   --> A_1  D_1  S_1  
     e(  7 -  7) =     11.97937  eV     1   --> B_1  D_3  S_3  
     e(  8 -  8) =     14.47172  eV     1   --> A_1  D_1  S_1  

 **************************************************************************

 **************************************************************************

                    xk=(   0.56667,   0.00000,   0.00000  )

     Band symmetry, C_2v (mm2)  point group:

     e(  1 -  1) =    -13.41366  eV     1   --> A_1  D_1  S_1  
     e(  2 -  2) =    -10.59956  eV     1   --> B_2  D_4  S_4  
     e(  3 -  3) =     -8.90220  eV     1   --> A_1  D_1  S_1  
     e(  4 -  4) =     -0.33121  eV     1   --> B_1  D_3  S_3  
     e(  5 -  5) =      3.02908  eV     1   --> A_2  D_2  S_2  
     e(  6 -  6) =     11.58468  eV     1   --> A_1  D_1  S_1  
     e(  7 -  7) =     11.89058  eV     1   --> B_1  D_3  S_3  
     e(  8 -  8) =     14.60838  eV     1   --> A_1  D_1  S_1  

 **************************************************************************

 **************************************************************************

                    xk=(   0.58333,   0.00000,   0.00000  )

     Band symmetry, C_2v (mm2)  point group:

     e(  1 -  1) =    -13.10644  eV     1   --> A_1  D_1  S_1  
     e(  2 -  2) =    -10.83476  eV     1   --> B_2  D_4  S_4  
     e(  3 -  3) =     -9.10065  eV     1   --> A_1  D_1  S_1  
     e(  4 -  4) =     -0.03127  eV     1   --> B_1  D_3  S_3  
     e(  5 -  5) =      2.72581  eV     1   --> A_2  D_2  S_2  
     e(  6 -  6) =     11.79255  eV     1   --> B_1  D_3  S_3  
     e(  7 -  7) =     12.02560  eV     1   --> A_1  D_1  S_1  
     e(  8 -  8) =     14.63512  eV     1   --> B_2  D_4  S_4  

 **************************************************************************

 **************************************************************************

                    xk=(   0.60000,   0.00000,   0.00000  )

     Band symmetry, C_2v (mm2)  point group:

     e(  1 -  1) =    -12.81404  eV     1   --> A_1  D_1  S_1  
     e(  2 -  2) =    -11.01126  eV     1   --> B_2  D_4  S_4  
     e(  3 -  3) =     -9.21117  eV     1   --> A_1  D_1  S_1  
     e(  4 -  4) =      0.27964  eV     1   --> B_1  D_3  S_3  
     e(  5 -  5) =      2.43383  eV     1   --> A_2  D_2  S_2  
     e(  6 -  6) =     11.69421  eV     1   --> B_1  D_3  S_3  
     e(  7 -  7) =     12.47218  eV     1   --> A_1  D_1  S_1  
     e(  8 -  8) =     14.61887  eV     1   --> B_2  D_4  S_4  

 **************************************************************************

 **************************************************************************

                    xk=(   0.61667,   0.00000,   0.00000  )

     Band symmetry, C_2v (mm2)  point group:

     e(  1 -  1) =    -12.51648  eV     1   --> A_1  D_1  S_1  
     e(  2 -  2) =    -11.22909  eV     1   --> B_2  D_4  S_4  
     e(  3 -  3) =     -9.37166  eV     1   --> A_1  D_1  S_1  
     e(  4 -  4) =      0.56607  eV     1   --> B_1  D_3  S_3  
     e(  5 -  5) =      2.15208  eV     1   --> A_2  D_2  S_2  
     e(  6 -  6) =     11.61035  eV     1   --> B_1  D_3  S_3  
     e(  7 -  7) =     12.91894  eV     1   --> A_1  D_1  S_1  
     e(  8 -  8) =     14.52626  eV     1   --> B_2  D_4  S_4  

 **************************************************************************

 **************************************************************************

                    xk=(   0.63333,   0.00000,   0.00000  )

     Band symmetry, C_2v (mm2)  point group:

     e(  1 -  1) =    -12.23006  eV     1   --> A_1  D_1  S_1  
     e(  2 -  2) =    -11.36420  eV     1   --> B_2  D_4  S_4  
     e(  3 -  3) =     -9.45560  eV     1   --> A_1  D_1  S_1  
     e(  4 -  4) =      0.84947  eV     1   --> B_1  D_3  S_3  
     e(  5 -  5) =      1.89506  eV     1   --> A_2  D_2  S_2  
     e(  6 -  6) =     11.54472  eV     1   --> B_1  D_3  S_3  
     e(  7 -  7) =     13.35856  eV     1   --> A_1  D_1  S_1  
     e(  8 -  8) =     14.41921  eV     1   --> B_2  D_4  S_4  

 **************************************************************************

 **************************************************************************

                    xk=(   0.65000,   0.00000,   0.00000  )

     Band symmetry, C_2v (mm2)  point group:

     e(  1 -  1) =    -11.97300  eV     1   --> A_1  D_1  S_1  
     e(  2 -  2) =    -11.56602  eV     1   --> B_2  D_4  S_4  
     e(  3 -  3) =     -9.53287  eV     1   --> A_1  D_1  S_1  
     e(  4 -  4) =      1.13584  eV     1   --> B_1  D_3  S_3  
     e(  5 -  5) =      1.63505  eV     1   --> A_2  D_2  S_2  
     e(  6 -  6) =     11.50269  eV     1   --> B_1  D_3  S_3  
     e(  7 -  7) =     13.77748  eV     1   --> A_1  D_1  S_1  
     e(  8 -  8) =     14.26398  eV     1   --> B_2  D_4  S_4  

 **************************************************************************

 **************************************************************************

                    xk=(   0.66667,   0.00000,   0.00000  )

     zone border point and non-symmorphic group 
     symmetry decomposition not available

 **************************************************************************

 **************************************************************************

                    xk=(   0.65833,  -0.01443,   0.00000  )

     zone border point and non-symmorphic group 
     symmetry decomposition not available

 **************************************************************************

 **************************************************************************

                    xk=(   0.65000,  -0.02887,   0.00000  )

     zone border point and non-symmorphic group 
     symmetry decomposition not available

 **************************************************************************

 **************************************************************************

                    xk=(   0.64167,  -0.04330,   0.00000  )

     zone border point and non-symmorphic group 
     symmetry decomposition not available

 **************************************************************************

 **************************************************************************

                    xk=(   0.63333,  -0.05774,   0.00000  )

     zone border point and non-symmorphic group 
     symmetry decomposition not available

 **************************************************************************

 **************************************************************************

                    xk=(   0.62500,  -0.07217,   0.00000  )

     zone border point and non-symmorphic group 
     symmetry decomposition not available

 **************************************************************************

 **************************************************************************

                    xk=(   0.61667,  -0.08660,   0.00000  )

     zone border point and non-symmorphic group 
     symmetry decomposition not available

 **************************************************************************

 **************************************************************************

                    xk=(   0.60833,  -0.10104,   0.00000  )

     zone border point and non-symmorphic group 
     symmetry decomposition not available

 **************************************************************************

 **************************************************************************

                    xk=(   0.60000,  -0.11547,   0.00000  )

     zone border point and non-symmorphic group 
     symmetry decomposition not available

 **************************************************************************

 **************************************************************************

                    xk=(   0.59167,  -0.12990,   0.00000  )

     zone border point and non-symmorphic group 
     symmetry decomposition not available

 **************************************************************************

 **************************************************************************

                    xk=(   0.58333,  -0.14434,   0.00000  )

     zone border point and non-symmorphic group 
     symmetry decomposition not available

 **************************************************************************

 **************************************************************************

                    xk=(   0.57500,  -0.15877,   0.00000  )

     zone border point and non-symmorphic group 
     symmetry decomposition not available

 **************************************************************************

 **************************************************************************

                    xk=(   0.56667,  -0.17321,   0.00000  )

     zone border point and non-symmorphic group 
     symmetry decomposition not available

 **************************************************************************

 **************************************************************************

                    xk=(   0.55833,  -0.18764,   0.00000  )

     zone border point and non-symmorphic group 
     symmetry decomposition not available

 **************************************************************************

 **************************************************************************

                    xk=(   0.55000,  -0.20207,   0.00000  )

     zone border point and non-symmorphic group 
     symmetry decomposition not available

 **************************************************************************

 **************************************************************************

                    xk=(   0.54167,  -0.21651,   0.00000  )

     zone border point and non-symmorphic group 
     symmetry decomposition not available

 **************************************************************************

 **************************************************************************

                    xk=(   0.53333,  -0.23094,   0.00000  )

     zone border point and non-symmorphic group 
     symmetry decomposition not available

 **************************************************************************

 **************************************************************************

                    xk=(   0.52500,  -0.24537,   0.00000  )

     zone border point and non-symmorphic group 
     symmetry decomposition not available

 **************************************************************************

 **************************************************************************

                    xk=(   0.51667,  -0.25981,   0.00000  )

     zone border point and non-symmorphic group 
     symmetry decomposition not available

 **************************************************************************

 **************************************************************************

                    xk=(   0.50833,  -0.27424,   0.00000  )

     zone border point and non-symmorphic group 
     symmetry decomposition not available

 **************************************************************************

 **************************************************************************

                    xk=(   0.50000,  -0.28868,   0.00000  )

     zone border point and non-symmorphic group 
     symmetry decomposition not available

 **************************************************************************

     BANDS        :      2.32s CPU      2.49s WALL


   This run was terminated on:   0:24:49   7Mar2020            

=------------------------------------------------------------------------------=
   JOB DONE.
=------------------------------------------------------------------------------=
