
     Program PWSCF v.6.4.1 starts on  6Mar2020 at 22:14:15 

     This program is part of the open-source Quantum ESPRESSO suite
     for quantum simulation of materials; please cite
         "P. Giannozzi et al., J. Phys.:Condens. Matter 21 395502 (2009);
         "P. Giannozzi et al., J. Phys.:Condens. Matter 29 465901 (2017);
          URL http://www.quantum-espresso.org", 
     in publications or presentations arising from this work. More details at
     http://www.quantum-espresso.org/quote

     Parallel version (MPI), running on     4 processors

     MPI processes distributed on     1 nodes
     R & G space division:  proc/nbgrp/npool/nimage =       4
     Reading input from pw.graphene.scf.in
 CNQ. ====== check read_namelists from qe

     Current dimensions of program PWSCF are:
     Max number of different atomic species (ntypx) = 10
     Max number of k-points (npk) =  40000
     Max angular momentum in pseudopotentials (lmaxx) =  3

     Subspace diagonalization in iterative solution of the eigenvalue problem:
     a serial algorithm will be used


     Parallelization info
     --------------------
     sticks:   dense  smooth     PW     G-vecs:    dense   smooth      PW
     Min          75      30      9                 3131      784     157
     Max          76      31     10                 3134      791     168
     Sum         301     121     37                12531     3147     647



     bravais-lattice index     =            4
     lattice parameter (alat)  =       4.6540  a.u.
     unit-cell volume          =     261.8973 (a.u.)^3
     number of atoms/cell      =            2
     number of atomic types    =            1
     number of electrons       =         8.00
     number of Kohn-Sham states=            4
     kinetic-energy cutoff     =      20.0000  Ry
     charge density cutoff     =     200.0000  Ry
     convergence threshold     =      1.0E-08
     mixing beta               =       0.7000
     number of iterations used =            8  plain     mixing
     Exchange-correlation      = PBE ( 1  4  3  4 0 0)

     celldm(1)=   4.654000  celldm(2)=   0.000000  celldm(3)=   3.000000
     celldm(4)=   0.000000  celldm(5)=   0.000000  celldm(6)=   0.000000

     crystal axes: (cart. coord. in units of alat)
               a(1) = (   1.000000   0.000000   0.000000 )  
               a(2) = (  -0.500000   0.866025   0.000000 )  
               a(3) = (   0.000000   0.000000   3.000000 )  

     reciprocal axes: (cart. coord. in units 2 pi/alat)
               b(1) = (  1.000000  0.577350 -0.000000 )  
               b(2) = (  0.000000  1.154701  0.000000 )  
               b(3) = (  0.000000 -0.000000  0.333333 )  


     PseudoPot. # 1 for C  read from file:
     /home/cndaqiang/ONCVPSP/abinit/C_ONCV_PBE_sr.upf
     MD5 check sum: be7deea5c8a9eeec940f0cd39a542f08
     Pseudo is Norm-conserving + core correction, Zval =  4.0
     Generated using ONCVPSP code by D. R. Hamann
     Using radial grid of 1248 points,  4 beta functions with: 
                l(1) =   0
                l(2) =   0
                l(3) =   1
                l(4) =   1

     atomic species   valence    mass     pseudopotential
        C              4.00    12.01070     C ( 1.00)

     24 Sym. Ops., with inversion, found (12 have fractional translation)



   Cartesian axes

     site n.     atom                  positions (alat units)
         1           C   tau(   1) = (   0.0000000   0.0000000   0.0000000  )
         2           C   tau(   2) = (   0.0000000   0.5773503   0.0000000  )

     number of k points=    12
                       cart. coord. in units 2pi/alat
        k(    1) = (   0.0000000   0.0000000   0.0000000), wk =   0.0246914
        k(    2) = (   0.0000000   0.1283001   0.0000000), wk =   0.1481481
        k(    3) = (   0.0000000   0.2566001   0.0000000), wk =   0.1481481
        k(    4) = (   0.0000000   0.3849002   0.0000000), wk =   0.1481481
        k(    5) = (   0.0000000   0.5132002   0.0000000), wk =   0.1481481
        k(    6) = (   0.1111111   0.1924501   0.0000000), wk =   0.1481481
        k(    7) = (   0.1111111   0.3207501   0.0000000), wk =   0.2962963
        k(    8) = (   0.1111111   0.4490502   0.0000000), wk =   0.2962963
        k(    9) = (   0.1111111   0.5773503   0.0000000), wk =   0.1481481
        k(   10) = (   0.2222222   0.3849002   0.0000000), wk =   0.1481481
        k(   11) = (   0.2222222   0.5132002   0.0000000), wk =   0.2962963
        k(   12) = (   0.3333333   0.5773503   0.0000000), wk =   0.0493827

     Dense  grid:    12531 G-vectors     FFT dimensions: (  24,  24,  64)

     Smooth grid:     3147 G-vectors     FFT dimensions: (  15,  15,  40)

     Estimated max dynamical RAM per process >       2.32 MB

     Estimated total dynamical RAM >       9.29 MB

     Initial potential from superposition of free atoms

     starting charge    7.99991, renormalised to    8.00000
     Starting wfcs are    8 randomized atomic wfcs

     total cpu time spent up to now is        0.3 secs

     Self-consistent Calculation

     iteration #  1     ecut=    20.00 Ry     beta= 0.70
     Davidson diagonalization with overlap
     ethr =  1.00E-02,  avg # of iterations =  2.0

     total cpu time spent up to now is        0.3 secs

     total energy              =     -23.41357788 Ry
     Harris-Foulkes estimate   =     -23.46180950 Ry
     estimated scf accuracy    <       0.11835865 Ry

     iteration #  2     ecut=    20.00 Ry     beta= 0.70
     Davidson diagonalization with overlap
     ethr =  1.48E-03,  avg # of iterations =  2.0

     total cpu time spent up to now is        0.4 secs

     total energy              =     -23.42551618 Ry
     Harris-Foulkes estimate   =     -23.42605568 Ry
     estimated scf accuracy    <       0.00405574 Ry

     iteration #  3     ecut=    20.00 Ry     beta= 0.70
     Davidson diagonalization with overlap
     ethr =  5.07E-05,  avg # of iterations =  1.3

     negative rho (up, down):  4.985E-07 0.000E+00

     total cpu time spent up to now is        0.4 secs

     total energy              =     -23.42574725 Ry
     Harris-Foulkes estimate   =     -23.42575791 Ry
     estimated scf accuracy    <       0.00017748 Ry

     iteration #  4     ecut=    20.00 Ry     beta= 0.70
     Davidson diagonalization with overlap
     ethr =  2.22E-06,  avg # of iterations =  2.6

     total cpu time spent up to now is        0.4 secs

     total energy              =     -23.42578834 Ry
     Harris-Foulkes estimate   =     -23.42578848 Ry
     estimated scf accuracy    <       0.00000113 Ry

     iteration #  5     ecut=    20.00 Ry     beta= 0.70
     Davidson diagonalization with overlap
     ethr =  1.41E-08,  avg # of iterations =  3.2

     total cpu time spent up to now is        0.5 secs

     total energy              =     -23.42578898 Ry
     Harris-Foulkes estimate   =     -23.42578981 Ry
     estimated scf accuracy    <       0.00000020 Ry

     iteration #  6     ecut=    20.00 Ry     beta= 0.70
     Davidson diagonalization with overlap
     ethr =  2.47E-09,  avg # of iterations =  2.0

     total cpu time spent up to now is        0.5 secs

     End of self-consistent calculation

          k = 0.0000 0.0000 0.0000 (   397 PWs)   bands (ev):

   -18.9563  -6.5647  -1.6824  -1.6824

          k = 0.0000 0.1283 0.0000 (   399 PWs)   bands (ev):

   -18.6640  -6.2408  -2.9144  -2.2912

          k = 0.0000 0.2566 0.0000 (   394 PWs)   bands (ev):

   -17.7782  -5.4972  -5.1813  -3.5494

          k = 0.0000 0.3849 0.0000 (   398 PWs)   bands (ev):

   -16.3354  -8.5846  -4.6747  -3.5039

          k = 0.0000 0.5132 0.0000 (   396 PWs)   bands (ev):

   -14.3633 -11.5277  -5.2549  -1.5159

          k = 0.1111 0.1925 0.0000 (   409 PWs)   bands (ev):

   -18.1079  -5.5621  -4.5347  -3.6334

          k = 0.1111 0.3208 0.0000 (   398 PWs)   bands (ev):

   -16.9419  -7.0766  -5.0446  -4.1687

          k = 0.1111 0.4491 0.0000 (   389 PWs)   bands (ev):

   -15.1825  -9.9455  -5.9085  -2.2275

          k = 0.1111 0.5774 0.0000 (   386 PWs)   bands (ev):

   -13.3354 -12.2083  -6.2287  -0.7728

          k = 0.2222 0.3849 0.0000 (   395 PWs)   bands (ev):

   -15.4901  -8.6544  -7.1802  -2.5125

          k = 0.2222 0.5132 0.0000 (   394 PWs)   bands (ev):

   -13.5352 -10.9218  -8.2284  -0.5333

          k = 0.3333 0.5774 0.0000 (   381 PWs)   bands (ev):

   -11.7586 -11.7586  -9.5674   1.3863

     highest occupied level (ev):     1.3863

!    total energy              =     -23.42578886 Ry
     Harris-Foulkes estimate   =     -23.42578901 Ry
     estimated scf accuracy    <          1.1E-09 Ry

     The total energy is the sum of the following terms:

     one-electron contribution =     -55.07487714 Ry
     hartree contribution      =      29.76462406 Ry
     xc contribution           =      -8.42618532 Ry
     ewald contribution        =      10.31064953 Ry

     convergence has been achieved in   6 iterations

     Writing output data file pwscf.save/

     init_run     :      0.07s CPU      0.10s WALL (       1 calls)
     electrons    :      0.20s CPU      0.23s WALL (       1 calls)

     Called by init_run:
     wfcinit      :      0.02s CPU      0.02s WALL (       1 calls)
     potinit      :      0.02s CPU      0.02s WALL (       1 calls)
     hinit0       :      0.02s CPU      0.03s WALL (       1 calls)

     Called by electrons:
     c_bands      :      0.12s CPU      0.14s WALL (       6 calls)
     sum_band     :      0.02s CPU      0.02s WALL (       6 calls)
     v_of_rho     :      0.05s CPU      0.06s WALL (       7 calls)
     mix_rho      :      0.00s CPU      0.00s WALL (       6 calls)

     Called by c_bands:
     init_us_2    :      0.00s CPU      0.00s WALL (     156 calls)
     cegterg      :      0.11s CPU      0.13s WALL (      72 calls)

     Called by sum_band:

     Called by *egterg:
     h_psi        :      0.10s CPU      0.11s WALL (     242 calls)
     g_psi        :      0.00s CPU      0.00s WALL (     158 calls)
     cdiaghg      :      0.01s CPU      0.02s WALL (     230 calls)

     Called by h_psi:
     h_psi:pot    :      0.10s CPU      0.11s WALL (     242 calls)
     h_psi:calbec :      0.01s CPU      0.01s WALL (     242 calls)
     vloc_psi     :      0.09s CPU      0.10s WALL (     242 calls)
     add_vuspsi   :      0.00s CPU      0.00s WALL (     242 calls)

     General routines
     calbec       :      0.01s CPU      0.01s WALL (     242 calls)
     fft          :      0.03s CPU      0.03s WALL (      82 calls)
     ffts         :      0.00s CPU      0.00s WALL (      13 calls)
     fftw         :      0.09s CPU      0.10s WALL (    2062 calls)
     interpolate  :      0.00s CPU      0.00s WALL (       7 calls)

     Parallel routines
     fft_scatt_xy :      0.01s CPU      0.01s WALL (    2157 calls)
     fft_scatt_yz :      0.03s CPU      0.03s WALL (    2157 calls)

     PWSCF        :      0.41s CPU      0.53s WALL


   This run was terminated on:  22:14:16   6Mar2020            

=------------------------------------------------------------------------------=
   JOB DONE.
=------------------------------------------------------------------------------=
