 ANIMSTEPS   7
 CRYSTAL 
 PRIMVEC 
 20.0000000000  0.0000000000  0.0000000000
  0.0000000000 20.0000000000  0.0000000000
  0.0000000000  0.0000000000 20.0000000000
 PRIMCOORD   1
    3  1
 C    9.9980503328   10.0000000000   10.0000000000   -0.1197007075   -0.0000000000   -0.0000000000
 N   11.1570020070   10.0000000000   10.0000000000    0.1410265572   -0.0000000000   -0.0000000000
 H    8.9249476602   10.0000000000   10.0000000000   -0.0213258497   -0.0000000000   -0.0000000000
 PRIMCOORD   2
    3  1
 C    9.7852320534   10.0000000000    9.6895782655    0.9704559259   -0.0000000000   -0.2259311516
 N   11.1536626517   10.0000000000   10.0432526529   -0.4446084687   -0.0000000000   -0.1444387178
 H    9.1232658972   10.0000000000   10.2314902860   -0.5258474573   -0.0000000000    0.3703698694
 PRIMCOORD   3
    3  1
 C    9.7985559582   10.0000000000    9.4761641443    0.3577713706   -0.0000000000    0.0289042850
 N   10.9502695362   10.0000000000   10.0997679549   -0.2177513365   -0.0000000000   -0.1666571890
 H    9.3022564294   10.0000000000   10.3662317484   -0.1400200341   -0.0000000000    0.1377529041
 PRIMCOORD   4
    3  1
 C    9.8403250669   10.0000000000    9.2561330531    0.0928939687   -0.0000000000    0.0923461954
 N   10.7373788467   10.0000000000   10.1613372761   -0.1353907174   -0.0000000000   -0.0823173869
 H    9.4622920957   10.0000000000   10.5025216893    0.0424967487   -0.0000000000   -0.0100288085
 PRIMCOORD   5
    3  1
 C    9.9017286407   10.0000000000    9.0418005892    0.1222044452   -0.0000000000    0.1734529252
 N   10.5174573676   10.0000000000   10.2052934479   -0.0325181951   -0.0000000000   -0.2561577483
 H    9.6097607055   10.0000000000   10.6507993902   -0.0896862501   -0.0000000000    0.0827048231
 PRIMCOORD   6
    3  1
 C    9.9565115811   10.0000000000    8.8336045963    0.1079235500   -0.0000000000    0.3867449671
 N   10.3110483313   10.0000000000   10.2124466457    0.2797131892   -0.0000000000   -0.8339705510
 H    9.7501690938   10.0000000000   10.8294067705   -0.3876367392   -0.0000000000    0.4472255839
 PRIMCOORD   7
    3  1
 C   10.0000000000   10.0000000000    8.8282833571   -0.0000000000   -0.0000000000   -0.1252978675
 N   10.0000000000   10.0000000000   10.0038416018   -0.0000000000   -0.0000000000    0.0837592913
 H   10.0000000000   10.0000000000   11.0078750411   -0.0000000000   -0.0000000000    0.0415385761
