
     Program PWSCF v.6.6 starts on 13Apr2022 at 23:13:55 

     This program is part of the open-source Quantum ESPRESSO suite
     for quantum simulation of materials; please cite
         "P. Giannozzi et al., J. Phys.:Condens. Matter 21 395502 (2009);
         "P. Giannozzi et al., J. Phys.:Condens. Matter 29 465901 (2017);
          URL http://www.quantum-espresso.org", 
     in publications or presentations arising from this work. More details at
     http://www.quantum-espresso.org/quote

     Parallel version (MPI), running on    10 processors

     MPI processes distributed on     1 nodes
     R & G space division:  proc/nbgrp/npool/nimage =      10
     Fft bands division:     nmany     =       1
     Reading input from pw.graphene.bands.in

     Current dimensions of program PWSCF are:
     Max number of different atomic species (ntypx) = 10
     Max number of k-points (npk) =  40000
     Max angular momentum in pseudopotentials (lmaxx) =  3

     Atomic positions and unit cell read from directory:
     ./pwscf.save/


     Subspace diagonalization in iterative solution of the eigenvalue problem:
     a serial algorithm will be used


     Parallelization info
     --------------------
     sticks:   dense  smooth     PW     G-vecs:    dense   smooth      PW
     Min          47      47     15                 2521     2521     421
     Max          48      48     16                 2530     2530     428
     Sum         475     475    151                25249    25249    4225



     bravais-lattice index     =            4
     lattice parameter (alat)  =       4.6540  a.u.
     unit-cell volume          =     261.8973 (a.u.)^3
     number of atoms/cell      =            2
     number of atomic types    =            1
     number of electrons       =         8.00
     number of Kohn-Sham states=           10
     kinetic-energy cutoff     =      80.0000  Ry
     charge density cutoff     =     320.0000  Ry
     Exchange-correlation= PZ
                           (   1   1   0   0   0   0   0)

     celldm(1)=   4.654000  celldm(2)=   0.000000  celldm(3)=   3.000000
     celldm(4)=   0.000000  celldm(5)=   0.000000  celldm(6)=   0.000000

     crystal axes: (cart. coord. in units of alat)
               a(1) = (   1.000000   0.000000   0.000000 )  
               a(2) = (  -0.500000   0.866025   0.000000 )  
               a(3) = (   0.000000   0.000000   3.000000 )  

     reciprocal axes: (cart. coord. in units 2 pi/alat)
               b(1) = (  1.000000  0.577350 -0.000000 )  
               b(2) = (  0.000000  1.154701  0.000000 )  
               b(3) = (  0.000000 -0.000000  0.333333 )  


     PseudoPot. # 1 for C  read from file:
     /home/cndaqiang/ONCVPSP/abinit/C_ONCV_PZ_fr.upf
     MD5 check sum: 73c9579beee49135f209ff5afbd6cd7e
     Pseudo is Norm-conserving + core correction, Zval =  4.0
     Generated using ONCVPSP code by D. R. Hamann
     Using radial grid of 1234 points,  4 beta functions with: 
                l(1) =   0
                l(2) =   0
                l(3) =   1
                l(4) =   1

     atomic species   valence    mass     pseudopotential
        C              4.00    12.01070     C ( 1.00)

     24 Sym. Ops., with inversion, found (12 have fractional translation)



   Cartesian axes

     site n.     atom                  positions (alat units)
         1           C   tau(   1) = (   0.0000000   0.0000000   0.0000000  )
         2           C   tau(   2) = (   0.0000000   0.5773503   0.0000000  )

     number of k points=    48
                       cart. coord. in units 2pi/alat
        k(    1) = (   0.0000000   0.0000000   0.0000000), wk =   0.0416667
        k(    2) = (   0.0166667   0.0288675   0.0000000), wk =   0.0416667
        k(    3) = (   0.0333333   0.0577350   0.0000000), wk =   0.0416667
        k(    4) = (   0.0500000   0.0866025   0.0000000), wk =   0.0416667
        k(    5) = (   0.0666667   0.1154701   0.0000000), wk =   0.0416667
        k(    6) = (   0.0833333   0.1443376   0.0000000), wk =   0.0416667
        k(    7) = (   0.1000000   0.1732051   0.0000000), wk =   0.0416667
        k(    8) = (   0.1166667   0.2020726   0.0000000), wk =   0.0416667
        k(    9) = (   0.1333333   0.2309401   0.0000000), wk =   0.0416667
        k(   10) = (   0.1500000   0.2598076   0.0000000), wk =   0.0416667
        k(   11) = (   0.1666667   0.2886751   0.0000000), wk =   0.0416667
        k(   12) = (   0.1833333   0.3175426   0.0000000), wk =   0.0416667
        k(   13) = (   0.2000000   0.3464102   0.0000000), wk =   0.0416667
        k(   14) = (   0.2166667   0.3752777   0.0000000), wk =   0.0416667
        k(   15) = (   0.2333333   0.4041452   0.0000000), wk =   0.0416667
        k(   16) = (   0.2500000   0.4330127   0.0000000), wk =   0.0416667
        k(   17) = (   0.2666667   0.4618802   0.0000000), wk =   0.0416667
        k(   18) = (   0.2833333   0.4907477   0.0000000), wk =   0.0416667
        k(   19) = (   0.3000000   0.5196152   0.0000000), wk =   0.0416667
        k(   20) = (   0.3166667   0.5484828   0.0000000), wk =   0.0416667
        k(   21) = (   0.3333333   0.5773503   0.0000000), wk =   0.0416667
        k(   22) = (   0.3000000   0.5773503   0.0000000), wk =   0.0416667
        k(   23) = (   0.2666667   0.5773503   0.0000000), wk =   0.0416667
        k(   24) = (   0.2333333   0.5773503   0.0000000), wk =   0.0416667
        k(   25) = (   0.2000000   0.5773503   0.0000000), wk =   0.0416667
        k(   26) = (   0.1666667   0.5773503   0.0000000), wk =   0.0416667
        k(   27) = (   0.1333333   0.5773503   0.0000000), wk =   0.0416667
        k(   28) = (   0.1000000   0.5773503   0.0000000), wk =   0.0416667
        k(   29) = (   0.0666667   0.5773503   0.0000000), wk =   0.0416667
        k(   30) = (   0.0333333   0.5773503   0.0000000), wk =   0.0416667
        k(   31) = (   0.0000000   0.5773503   0.0000000), wk =   0.0416667
        k(   32) = (   0.0000000   0.5433885   0.0000000), wk =   0.0416667
        k(   33) = (   0.0000000   0.5094267   0.0000000), wk =   0.0416667
        k(   34) = (   0.0000000   0.4754649   0.0000000), wk =   0.0416667
        k(   35) = (   0.0000000   0.4415031   0.0000000), wk =   0.0416667
        k(   36) = (   0.0000000   0.4075414   0.0000000), wk =   0.0416667
        k(   37) = (   0.0000000   0.3735796   0.0000000), wk =   0.0416667
        k(   38) = (   0.0000000   0.3396178   0.0000000), wk =   0.0416667
        k(   39) = (   0.0000000   0.3056560   0.0000000), wk =   0.0416667
        k(   40) = (   0.0000000   0.2716942   0.0000000), wk =   0.0416667
        k(   41) = (   0.0000000   0.2377325   0.0000000), wk =   0.0416667
        k(   42) = (   0.0000000   0.2037707   0.0000000), wk =   0.0416667
        k(   43) = (   0.0000000   0.1698089   0.0000000), wk =   0.0416667
        k(   44) = (   0.0000000   0.1358471   0.0000000), wk =   0.0416667
        k(   45) = (   0.0000000   0.1018853   0.0000000), wk =   0.0416667
        k(   46) = (   0.0000000   0.0679236   0.0000000), wk =   0.0416667
        k(   47) = (   0.0000000   0.0339618   0.0000000), wk =   0.0416667
        k(   48) = (   0.0000000   0.0000000   0.0000000), wk =   0.0416667

     Dense  grid:    25249 G-vectors     FFT dimensions: (  27,  27,  80)

     Estimated max dynamical RAM per process >       1.50 MB

     Estimated total dynamical RAM >      14.99 MB

     The potential is recalculated from file :
     ./pwscf.save/charge-density

     Starting wfcs are    8 randomized atomic wfcs +    2 random wfcs
        _____ ____    _    ______        __      
       |_6.6_|  _ \  / \  |  _ \ \      / /      
         | | | | | |/ _ \ | |_) \ \ /\ / /       
         | | | |_| / ___ \|  __/ \ V  V /        
         |_| |____/_/   \_\_|     \_/\_/         
      
     TDPW: 
     Please cite TDAP work done with this code as:
        The Journal of chemical physics 129.5 (2008): 054110
        Advanced Theory and Simulations 1.8 (2018): 1870018
        Advanced Theory and Simulations 1.8 (2018): 1800055
        Nature Communications 11.1 (2020): 1-8
      
     Any question, Please contact cndaqiang@IOP 
        ^_^   PAW is too hard for me   ^_^   
        ^_^     SOC need to test    ^_^   
     TDPW: ========================= 
     TDPW: calculation is bands and not do TDevolve.
     TDPW: ========================= 
     -------------------------
     TDPW: input parameters   
     QEPW: calculation      =      bands
     QEPW: ion_dynamics     =       none
     TDPW: tddft_is_on      =          F
     TDPW: suddenChangeFix  =          T
     TDPW: diagonSteps      =          2
     TDPW: edt              =    1.00000
     QEPW: dt               =   20.00000
     QEPW: nstep            =          1
     TDPW: TDIfinal         =          1
     TDPW: mstep            =       1000
     TDPW: scissor(Unknow)  =    0.00000
     TDPW: screen           =          F
     TDPW: nwevc            =          0
     TDPW: punchks          =          T
     TDPW: punchtdks        =          F
     TDPW: TDDebug          =          F
     TDPW: cal_pop0         =          F
     TDPW: td_constrained   =          F
     QEPW: diago_full_acc   =          F
     QEPW: conv_thr(d\rho)  =  0.100E-07
     TDPW: Debug parameters   
     TDPW: TDChangexk(BUG)  =          F
     TDPW: TDg2_kin         =          T
     TDPW: TDinit_us_2      =          F
     TDPW: norm_prod        =          F
     TDPW: current_debug    =          F
     TDPW: td_current_k     =          F
     TDPW: td_Big_MeM       =          F
     -- rho/D/L... by tdks  --
     TDPW: use_tdks        =          F
     TDPW: td_ht           =          0
     ---------i-PI------------
     TDPW: [ td_i_pi ]      =          F
     TDPW: [td_nbeadstot]   =          1
     TDPW: td_tract_atom    =          T
     -------------------------
     TDPW: [GaugeField(TDDFT)]=          T
     TDPW: DFTAfield        =          F
     TDPW: [tefield(DFT)  ] =          F
     TDPW: [tefield(TDDFT)] =          F
     TDPW: td_outputD       =          T
     TDPW: td_outputL       =          T
     TDPW: td_outputS       =          F
     TDPW: use_origin(NO)   =          F
     TDPW: [originx,y,z]    =   0.5000  0.5000  0.5000
     TDPW: LastDiagonA      =          F
     TDPW: LastDiagonE      =          F
     TDPW: LastDiagonExp    =          F
     TDPW: tdexp_fwfft      =          F
     QEPW: B_field          =   0.0000  0.0000  0.0000
     ---- Not support Now ----
     TDPW: [x]rho_debug     =          F
     TDPW: [x]rho_build     =          F
     TDPW: [x]rho_evc       =          F
     TDPW: [x]DPEqSumBand   =          F
     TDPW: [x]tdSmethod(100)=          F
      
     =====================
     MD step ( Diagon ) = 1 )
     =====================

     TDPW: Electric field is     0.000000000    0.000000000    0.000000000

     Band Structure Calculation
     Davidson diagonalization with overlap
 ik           1   0.0000000000000000        0.0000000000000000        0.0000000000000000      Afield   0.0000000000000000        0.0000000000000000        0.0000000000000000     
 ik           2   2.2501021725222989E-002   3.8972912850294576E-002   0.0000000000000000      Afield   0.0000000000000000        0.0000000000000000        0.0000000000000000     
 ik           3   4.5002043450445978E-002   7.7945825700589152E-002   0.0000000000000000      Afield   0.0000000000000000        0.0000000000000000        0.0000000000000000     
 ik           4   6.7503065175668966E-002  0.11691873855088372        0.0000000000000000      Afield   0.0000000000000000        0.0000000000000000        0.0000000000000000     
 ik           5   9.0004086900891955E-002  0.15589165140117830        0.0000000000000000      Afield   0.0000000000000000        0.0000000000000000        0.0000000000000000     
 ik           6  0.11250510862611494       0.19486456425147286        0.0000000000000000      Afield   0.0000000000000000        0.0000000000000000        0.0000000000000000     
 ik           7  0.13500613035133793       0.23383747710176744        0.0000000000000000      Afield   0.0000000000000000        0.0000000000000000        0.0000000000000000     
 ik           8  0.15750715207656094       0.27281038995206203        0.0000000000000000      Afield   0.0000000000000000        0.0000000000000000        0.0000000000000000     
 ik           9  0.18000817380178391       0.31178330280235661        0.0000000000000000      Afield   0.0000000000000000        0.0000000000000000        0.0000000000000000     
 ik          10  0.20250919552700689       0.35075621565265114        0.0000000000000000      Afield   0.0000000000000000        0.0000000000000000        0.0000000000000000     
 ik          11  0.22501021725222989       0.38972912850294572        0.0000000000000000      Afield   0.0000000000000000        0.0000000000000000        0.0000000000000000     
 ik          12  0.24751123897745289       0.42870204135324030        0.0000000000000000      Afield   0.0000000000000000        0.0000000000000000        0.0000000000000000     
 ik          13  0.27001226070267587       0.46767495420353489        0.0000000000000000      Afield   0.0000000000000000        0.0000000000000000        0.0000000000000000     
 ik          14  0.29251328242789887       0.50664786705382947        0.0000000000000000      Afield   0.0000000000000000        0.0000000000000000        0.0000000000000000     
 ik          15  0.31501430415312187       0.54562077990412405        0.0000000000000000      Afield   0.0000000000000000        0.0000000000000000        0.0000000000000000     
 ik          16  0.33751532587834482       0.58459369275441864        0.0000000000000000      Afield   0.0000000000000000        0.0000000000000000        0.0000000000000000     
 ik          17  0.36001634760356782       0.62356660560471322        0.0000000000000000      Afield   0.0000000000000000        0.0000000000000000        0.0000000000000000     
 ik          18  0.38251736932879082       0.66253951845500769        0.0000000000000000      Afield   0.0000000000000000        0.0000000000000000        0.0000000000000000     
 ik          19  0.40501839105401377       0.70151243130530228        0.0000000000000000      Afield   0.0000000000000000        0.0000000000000000        0.0000000000000000     
 ik          20  0.42751941277923677       0.74048534415559675        0.0000000000000000      Afield   0.0000000000000000        0.0000000000000000        0.0000000000000000     
     c_bands:  1 eigenvalues not converged
 ik          21  0.45002043450445978       0.77945825700589144        0.0000000000000000      Afield   0.0000000000000000        0.0000000000000000        0.0000000000000000     
 ik          22  0.40501839105401377       0.77945825701368598        0.0000000000000000      Afield   0.0000000000000000        0.0000000000000000        0.0000000000000000     
 ik          23  0.36001634760356782       0.77945825702148053        0.0000000000000000      Afield   0.0000000000000000        0.0000000000000000        0.0000000000000000     
 ik          24  0.31501430415312182       0.77945825702927507        0.0000000000000000      Afield   0.0000000000000000        0.0000000000000000        0.0000000000000000     
 ik          25  0.27001226070267587       0.77945825703706983        0.0000000000000000      Afield   0.0000000000000000        0.0000000000000000        0.0000000000000000     
 ik          26  0.22501021725222989       0.77945825704486427        0.0000000000000000      Afield   0.0000000000000000        0.0000000000000000        0.0000000000000000     
 ik          27  0.18000817380178388       0.77945825705265903        0.0000000000000000      Afield   0.0000000000000000        0.0000000000000000        0.0000000000000000     
 ik          28  0.13500613035133791       0.77945825706045357        0.0000000000000000      Afield   0.0000000000000000        0.0000000000000000        0.0000000000000000     
 ik          29   9.0004086900891941E-002  0.77945825706824812        0.0000000000000000      Afield   0.0000000000000000        0.0000000000000000        0.0000000000000000     
 ik          30   4.5002043450445971E-002  0.77945825707604266        0.0000000000000000      Afield   0.0000000000000000        0.0000000000000000        0.0000000000000000     
 ik          31   0.0000000000000000       0.77945825708383720        0.0000000000000000      Afield   0.0000000000000000        0.0000000000000000        0.0000000000000000     
 ik          32   0.0000000000000000       0.73360777137302324        0.0000000000000000      Afield   0.0000000000000000        0.0000000000000000        0.0000000000000000     
 ik          33   0.0000000000000000       0.68775728566220939        0.0000000000000000      Afield   0.0000000000000000        0.0000000000000000        0.0000000000000000     
 ik          34   0.0000000000000000       0.64190679995139532        0.0000000000000000      Afield   0.0000000000000000        0.0000000000000000        0.0000000000000000     
 ik          35   0.0000000000000000       0.59605631424058136        0.0000000000000000      Afield   0.0000000000000000        0.0000000000000000        0.0000000000000000     
 ik          36   0.0000000000000000       0.55020582852976740        0.0000000000000000      Afield   0.0000000000000000        0.0000000000000000        0.0000000000000000     
 ik          37   0.0000000000000000       0.50435534281895356        0.0000000000000000      Afield   0.0000000000000000        0.0000000000000000        0.0000000000000000     
 ik          38   0.0000000000000000       0.45850485710813960        0.0000000000000000      Afield   0.0000000000000000        0.0000000000000000        0.0000000000000000     
 ik          39   0.0000000000000000       0.41265437139732564        0.0000000000000000      Afield   0.0000000000000000        0.0000000000000000        0.0000000000000000     
 ik          40   0.0000000000000000       0.36680388568651162        0.0000000000000000      Afield   0.0000000000000000        0.0000000000000000        0.0000000000000000     
 ik          41   0.0000000000000000       0.32095339997569766        0.0000000000000000      Afield   0.0000000000000000        0.0000000000000000        0.0000000000000000     
 ik          42   0.0000000000000000       0.27510291426488370        0.0000000000000000      Afield   0.0000000000000000        0.0000000000000000        0.0000000000000000     
 ik          43   0.0000000000000000       0.22925242855406983        0.0000000000000000      Afield   0.0000000000000000        0.0000000000000000        0.0000000000000000     
 ik          44   0.0000000000000000       0.18340194284325589        0.0000000000000000      Afield   0.0000000000000000        0.0000000000000000        0.0000000000000000     
 ik          45   0.0000000000000000       0.13755145713244188        0.0000000000000000      Afield   0.0000000000000000        0.0000000000000000        0.0000000000000000     
 ik          46   0.0000000000000000        9.1700971421627947E-002   0.0000000000000000      Afield   0.0000000000000000        0.0000000000000000        0.0000000000000000     
 ik          47   0.0000000000000000        4.5850485710813974E-002   0.0000000000000000      Afield   0.0000000000000000        0.0000000000000000        0.0000000000000000     
 ik          48   0.0000000000000000        0.0000000000000000        0.0000000000000000      Afield   0.0000000000000000        0.0000000000000000        0.0000000000000000     

     ethr =  1.25E-10,  avg # of iterations = 38.9

     total cpu time spent up to now is        4.3 secs

     End of band structure calculation

          k = 0.0000 0.0000 0.0000 (  3147 PWs)   bands (ev):

   -18.6949  -7.0457  -2.3811  -2.3811   3.6761   6.9667   9.0087   9.0087
     9.2885  11.9774

          k = 0.0167 0.0289 0.0000 (  3167 PWs)   bands (ev):

   -18.6753  -7.0220  -2.4610  -2.4251   3.7027   6.9922   9.0139   9.0943
     9.3221  11.9099

          k = 0.0333 0.0577 0.0000 (  3187 PWs)   bands (ev):

   -18.6166  -6.9509  -2.6915  -2.5554   3.7828   7.0686   9.0370   9.3388
     9.4171  11.7102

          k = 0.0500 0.0866 0.0000 (  3183 PWs)   bands (ev):

   -18.5187  -6.8326  -3.0497  -2.7675   3.9162   7.1957   9.0893   9.5645
     9.7081  11.3873

          k = 0.0667 0.1155 0.0000 (  3187 PWs)   bands (ev):

   -18.3819  -6.6675  -3.5065  -3.0543   4.1031   7.3731   9.1792   9.7595
    10.1539  10.9542

          k = 0.0833 0.1443 0.0000 (  3187 PWs)   bands (ev):

   -18.2063  -6.4561  -4.0331  -3.4066   4.3434   7.6002   9.3113  10.0009
    10.4275  10.6237

          k = 0.1000 0.1732 0.0000 (  3183 PWs)   bands (ev):

   -17.9922  -6.1991  -4.6049  -3.8142   4.6371   7.8758   9.4883   9.8253
    10.2887  11.0715

          k = 0.1167 0.2021 0.0000 (  3171 PWs)   bands (ev):

   -17.7398  -5.8975  -5.2026  -4.2661   4.9841   8.1986   9.1655   9.7112
    10.6235  11.4693

          k = 0.1333 0.2309 0.0000 (  3161 PWs)   bands (ev):

   -17.4495  -5.8115  -5.5524  -4.7516   5.3843   8.4651   8.5664   9.9796
    11.0057  11.8106

          k = 0.1500 0.2598 0.0000 (  3171 PWs)   bands (ev):

   -17.1219  -6.4205  -5.2605  -5.1656   5.8375   7.7393   8.9757  10.2919
    11.4356  12.1038

          k = 0.1667 0.2887 0.0000 (  3177 PWs)   bands (ev):

   -16.7577  -7.0214  -5.7835  -4.7389   6.3432   7.0010   9.4213  10.6457
    11.9131  12.3616

          k = 0.1833 0.3175 0.0000 (  3173 PWs)   bands (ev):

   -16.3575  -7.6080  -6.3120  -4.2748   6.2617   6.9010   9.8940  11.0371
    12.4374  12.5952

          k = 0.2000 0.3464 0.0000 (  3173 PWs)   bands (ev):

   -15.9226  -8.1758  -6.8387  -3.7766   5.5303   7.5103  10.3777  11.4608
    12.8120  13.0070

          k = 0.2167 0.3753 0.0000 (  3181 PWs)   bands (ev):

   -15.4543  -8.7215  -7.3567  -3.2483   4.8142   8.1699  10.8429  11.9093
    13.0155  13.6185

          k = 0.2333 0.4041 0.0000 (  3177 PWs)   bands (ev):

   -14.9546  -9.2422  -7.8600  -2.6951   4.1198   8.8785  11.2363  12.3718
    13.2054  14.2663

          k = 0.2500 0.4330 0.0000 (  3173 PWs)   bands (ev):

   -14.4262  -9.7361  -8.3425  -2.1237   3.4521   9.6332  11.4809  12.8312
    13.3770  14.9385

          k = 0.2667 0.4619 0.0000 (  3167 PWs)   bands (ev):

   -13.8737 -10.2018  -8.7978  -1.5426   2.8152  10.4293  11.5290  13.2601
    13.5201  15.1126

          k = 0.2833 0.4907 0.0000 (  3145 PWs)   bands (ev):

   -13.3042 -10.6379  -9.2173  -0.9623   2.2125  11.2575  11.4280  13.6147
    13.6168  15.5384

          k = 0.3000 0.5196 0.0000 (  3145 PWs)   bands (ev):

   -12.7324 -11.0437  -9.5864  -0.3959   1.6466  11.2760  12.0961  13.6422
    13.8339  16.1215

          k = 0.3167 0.5485 0.0000 (  3160 PWs)   bands (ev):

   -12.1911 -11.4185  -9.8734   0.1417   1.1199  11.1515  12.8854  13.5731
    13.8737  16.3704

          k = 0.3333 0.5774 0.0000 (  3156 PWs)   bands (ev):

   -11.7617 -11.7617  -9.9990   0.6342   0.6342  11.1030  13.4065  13.4065
    13.8187  16.3249

          k = 0.3000 0.5774 0.0000 (  3164 PWs)   bands (ev):

   -12.0730 -11.5762  -9.8353   0.1911   1.0663  11.1578  13.1673  13.3176
    13.7668  16.3197

          k = 0.2667 0.5774 0.0000 (  3160 PWs)   bands (ev):

   -12.3520 -11.6303  -9.3923  -0.2082   1.4266  11.3269  12.8926  13.0039
    13.3050  16.3819

          k = 0.2333 0.5774 0.0000 (  3152 PWs)   bands (ev):

   -12.5986 -11.7872  -8.8154  -0.5626   1.7105  11.6049  12.4174  12.6133
    12.8059  16.0286

          k = 0.2000 0.5774 0.0000 (  3156 PWs)   bands (ev):

   -12.8126 -11.9654  -8.1979  -0.8712   1.9210  11.5643  11.9689  12.3499
    12.4958  15.6915

          k = 0.1667 0.5774 0.0000 (  3166 PWs)   bands (ev):

   -12.9938 -12.1335  -7.5872  -1.1335   2.0677  10.6964  12.1151  12.2383
    12.3794  15.4055

          k = 0.1333 0.5774 0.0000 (  3158 PWs)   bands (ev):

   -13.1422 -12.2788  -7.0170  -1.3487   2.1638   9.8914  11.9164  12.0245
    12.7853  15.1710

          k = 0.1000 0.5774 0.0000 (  3134 PWs)   bands (ev):

   -13.2576 -12.3953  -6.5198  -1.5165   2.2226   9.1998  11.7585  11.8560
    13.1352  14.9883

          k = 0.0667 0.5774 0.0000 (  3146 PWs)   bands (ev):

   -13.3401 -12.4801  -6.1294  -1.6366   2.2559   8.6651  11.6440  11.7345
    13.3933  14.8577

          k = 0.0333 0.5774 0.0000 (  3144 PWs)   bands (ev):

   -13.3896 -12.5315  -5.8784  -1.7088   2.2724   8.3256  11.5747  11.6612
    13.5465  14.7793

          k = 0.0000 0.5774 0.0000 (  3142 PWs)   bands (ev):

   -13.4061 -12.5487  -5.7916  -1.7328   2.2773   8.2090  11.5516  11.6367
    13.5968  14.7531

          k = 0.0000 0.5434 0.0000 (  3154 PWs)   bands (ev):

   -13.7359 -12.1888  -5.7711  -1.8656   2.4418   8.2183  10.7127  12.5145
    13.2483  15.0979

          k = 0.0000 0.5094 0.0000 (  3148 PWs)   bands (ev):

   -14.2727 -11.5619  -5.7097  -2.2104   2.8813   8.2456   9.8790  12.6259
    13.4603  15.1641

          k = 0.0000 0.4755 0.0000 (  3156 PWs)   bands (ev):

   -14.8137 -10.8718  -5.6082  -2.6710   3.4972   8.2860   9.0989  11.9700
    14.3955  14.4557

          k = 0.0000 0.4415 0.0000 (  3156 PWs)   bands (ev):

   -15.3310 -10.1485  -5.4675  -3.1776   4.2163   8.2413   8.4716  11.3277
    13.7560  15.3088

          k = 0.0000 0.4075 0.0000 (  3160 PWs)   bands (ev):

   -15.8170  -9.4020  -5.2894  -3.6910   4.9942   7.6423   8.4658  10.7153
    13.1140  16.0387

          k = 0.0000 0.3736 0.0000 (  3172 PWs)   bands (ev):

   -16.2686  -8.6393  -5.0760  -4.1897   5.8024   7.0171   8.5513  10.1411
    12.5181  16.4201

          k = 0.0000 0.3396 0.0000 (  3162 PWs)   bands (ev):

   -16.6840  -7.8670  -4.8304  -4.6616   6.4407   6.6198   8.6499   9.6114
    11.9709  15.5598

          k = 0.0000 0.3057 0.0000 (  3158 PWs)   bands (ev):

   -17.0622  -7.0928  -5.0994  -4.5567   5.9172   7.4244   8.7525   9.1341
    11.4739  14.5686

          k = 0.0000 0.2717 0.0000 (  3159 PWs)   bands (ev):

   -17.4022  -6.3257  -5.4983  -4.2602   5.4478   8.1559   8.7562   8.8516
    11.0285  13.6017

          k = 0.0000 0.2377 0.0000 (  3161 PWs)   bands (ev):

   -17.7035  -5.8550  -5.5770  -3.9480   5.0331   8.2139   8.9390   9.0643
    10.6353  12.6783

          k = 0.0000 0.2038 0.0000 (  3165 PWs)   bands (ev):

   -17.9655  -6.1674  -4.8605  -3.6290   4.6733   7.9049   9.0062   9.7373
    10.2943  11.8161

          k = 0.0000 0.1698 0.0000 (  3175 PWs)   bands (ev):

   -18.1878  -6.4338  -4.1934  -3.3148   4.3686   7.6230   9.0464  10.0048
    10.3660  11.0336

          k = 0.0000 0.1358 0.0000 (  3187 PWs)   bands (ev):

   -18.3700  -6.6532  -3.5960  -3.0199   4.1193   7.3883   9.0580   9.7643
    10.3498  10.9150

          k = 0.0000 0.1019 0.0000 (  3189 PWs)   bands (ev):

   -18.5120  -6.8245  -3.0922  -2.7613   3.9253   7.2044   9.0475   9.5699
     9.7856  11.3650

          k = 0.0000 0.0679 0.0000 (  3195 PWs)   bands (ev):

   -18.6136  -6.9473  -2.7071  -2.5576   3.7868   7.0725   9.0282   9.3619
     9.4211  11.7002

          k = 0.0000 0.0340 0.0000 (  3177 PWs)   bands (ev):

   -18.6746  -7.0211  -2.4643  -2.4265   3.7038   6.9931   9.0134   9.0982
     9.3234  11.9073

          k = 0.0000 0.0000 0.0000 (  3147 PWs)   bands (ev):

   -18.6949  -7.0457  -2.3811  -2.3811   3.6761   6.9667   9.0087   9.0087
     9.2885  11.9774
     TDPW: real_dipole<psi|er|psi>= -0.1558301E+01  0.2404772E+01  0.7897445E+01
     TDPW: imag_dipole<psi|er|psi>=  0.0000000E+00 -0.0000000E+00 -0.0000000E+00
     TDPW: ion_dipole3=  0.5319966E+01 -0.9879934E+01 -0.7898100E+01
     TDPW: tot_dipole3=  0.3761665E+01 -0.7475162E+01 -0.6552155E-03
     TDPW: current_real_<psi|eP|psi> is   0.8639584E-01  0.3817917E+00 -0.1134669E-07
     TDPW: current_imag_<psi|eP|psi> is -0.0000000E+00 -0.0000000E+00 -0.0000000E+00
     TDPW: real_<psi_R|momentum(rXP)|psi_R>= -0.1885884E+00  0.4269655E-01 -0.5514694E-01
     TDPW: imag_<psi_R|momentum(rXP)|psi_R>=  0.0000000E+00  0.0000000E+00  0.0000000E+00
     TDPW: Not add force and energy of field with atoms now

     TDPW: Analysis done ( TDSaveStep = 1 ). Cpu time to now:         4.7 secs

     Writing output data file ./pwscf.save/
     td_init      :      0.00s CPU      0.00s WALL (       1 calls)
     td_analysis  :      0.43s CPU      0.44s WALL (       1 calls)

     init_run     :      0.04s CPU      0.05s WALL (       1 calls)
     electrons    :      3.89s CPU      4.02s WALL (       1 calls)

     Called by init_run:
     wfcinit      :      0.00s CPU      0.00s WALL (       1 calls)
     potinit      :      0.00s CPU      0.00s WALL (       1 calls)
     hinit0       :      0.03s CPU      0.03s WALL (       1 calls)

     Called by electrons:
     c_bands      :      3.89s CPU      4.02s WALL (       1 calls)
     v_of_rho     :      0.00s CPU      0.00s WALL (       1 calls)

     Called by c_bands:
     init_us_2    :      0.01s CPU      0.01s WALL (      96 calls)
     cegterg      :      3.74s CPU      3.85s WALL (     117 calls)

     Called by *egterg:
     cdiaghg      :      0.26s CPU      0.27s WALL (    1915 calls)
     h_psi        :      2.98s CPU      3.07s WALL (    2032 calls)
     g_psi        :      0.02s CPU      0.02s WALL (    1867 calls)

     Called by h_psi:
     h_psi:calbec :      0.13s CPU      0.14s WALL (    2032 calls)
     vloc_psi     :      2.74s CPU      2.83s WALL (    2032 calls)
     add_vuspsi   :      0.09s CPU      0.09s WALL (    2032 calls)

     General routines
     calbec       :      0.13s CPU      0.13s WALL (    2032 calls)
     fft          :      0.00s CPU      0.00s WALL (       7 calls)
     ffts         :      0.00s CPU      0.00s WALL (       3 calls)
     fftw         :      2.97s CPU      3.06s WALL (   24578 calls)
     davcio       :      0.01s CPU      0.02s WALL (     432 calls)

     Parallel routines
     fft_scatt_xy :      0.25s CPU      0.25s WALL (   24588 calls)
     fft_scatt_yz :      0.63s CPU      0.65s WALL (   24588 calls)

     PWSCF        :      4.60s CPU      4.77s WALL


   This run was terminated on:  23:14: 0  13Apr2022            

=------------------------------------------------------------------------------=
   JOB DONE.
=------------------------------------------------------------------------------=
