 CRYSTAL
 PRIMVEC
   -1.984414532    0.000000000    1.984414532
    0.000000000    1.984414532    1.984414532
   -1.984414532    1.984414532    0.000000000
 PRIMCOORD
           1           1
Al        0.000000000    0.000000000    0.000000000
BEGIN_BLOCK_DATAGRID_3D
3D_PWSCF
DATAGRID_3D_UNKNOWN
          13          13          13
  0.000000  0.000000  0.000000
   -1.984415    0.000000    1.984415
    0.000000    1.984415    1.984415
   -1.984415    1.984415    0.000000
  0.176536E-02  0.511015E-02  0.148644E-01  0.263359E-01  0.324127E-01  0.326523E-01
  0.318773E-01  0.326523E-01  0.324127E-01  0.263359E-01  0.148644E-01  0.511015E-02
  0.176536E-02  0.511015E-02  0.117656E-01  0.225702E-01  0.308314E-01  0.328514E-01
  0.318085E-01  0.318085E-01  0.328514E-01  0.308314E-01  0.225702E-01  0.117656E-01
  0.511015E-02  0.511015E-02  0.148644E-01  0.225702E-01  0.299605E-01  0.326700E-01
  0.316704E-01  0.307446E-01  0.316704E-01  0.326700E-01  0.299605E-01  0.225702E-01
  0.148644E-01  0.117656E-01  0.148644E-01  0.263359E-01  0.308314E-01  0.326700E-01
  0.316010E-01  0.300587E-01  0.300587E-01  0.316010E-01  0.326700E-01  0.308314E-01
  0.263359E-01  0.225702E-01  0.225702E-01  0.263359E-01  0.324127E-01  0.328514E-01
  0.316704E-01  0.300587E-01  0.293566E-01  0.300587E-01  0.316704E-01  0.328514E-01
  0.324127E-01  0.308314E-01  0.299605E-01  0.308314E-01  0.324127E-01  0.326523E-01
  0.318085E-01  0.307446E-01  0.300587E-01  0.300587E-01  0.307446E-01  0.318085E-01
  0.326523E-01  0.328514E-01  0.326700E-01  0.326700E-01  0.328514E-01  0.326523E-01
  0.318773E-01  0.318085E-01  0.316704E-01  0.316010E-01  0.316704E-01  0.318085E-01
  0.318773E-01  0.318085E-01  0.316704E-01  0.316010E-01  0.316704E-01  0.318085E-01
  0.318773E-01  0.326523E-01  0.328514E-01  0.326700E-01  0.326700E-01  0.328514E-01
  0.326523E-01  0.318085E-01  0.307446E-01  0.300587E-01  0.300587E-01  0.307446E-01
  0.318085E-01  0.326523E-01  0.324127E-01  0.308314E-01  0.299605E-01  0.308314E-01
  0.324127E-01  0.328514E-01  0.316704E-01  0.300587E-01  0.293566E-01  0.300587E-01
  0.316704E-01  0.328514E-01  0.324127E-01  0.263359E-01  0.225702E-01  0.225702E-01
  0.263359E-01  0.308314E-01  0.326700E-01  0.316010E-01  0.300587E-01  0.300587E-01
  0.316010E-01  0.326700E-01  0.308314E-01  0.263359E-01  0.148644E-01  0.117656E-01
  0.148644E-01  0.225702E-01  0.299605E-01  0.326700E-01  0.316704E-01  0.307446E-01
  0.316704E-01  0.326700E-01  0.299605E-01  0.225702E-01  0.148644E-01  0.511015E-02
  0.511015E-02  0.117656E-01  0.225702E-01  0.308314E-01  0.328514E-01  0.318085E-01
  0.318085E-01  0.328514E-01  0.308314E-01  0.225702E-01  0.117656E-01  0.511015E-02
  0.176536E-02  0.511015E-02  0.148644E-01  0.263359E-01  0.324127E-01  0.326523E-01
  0.318773E-01  0.326523E-01  0.324127E-01  0.263359E-01  0.148644E-01  0.511015E-02
  0.176536E-02  0.511015E-02  0.117656E-01  0.225702E-01  0.308314E-01  0.328514E-01
  0.318085E-01  0.318085E-01  0.328514E-01  0.308314E-01  0.225702E-01  0.117656E-01
  0.511015E-02  0.511015E-02  0.117656E-01  0.204587E-01  0.293233E-01  0.331119E-01
  0.324766E-01  0.315875E-01  0.324766E-01  0.331119E-01  0.293233E-01  0.204587E-01
  0.117656E-01  0.840254E-02  0.117656E-01  0.225702E-01  0.293233E-01  0.330667E-01
  0.327960E-01  0.313467E-01  0.313467E-01  0.327960E-01  0.330667E-01  0.293233E-01
  0.225702E-01  0.174254E-01  0.174254E-01  0.225702E-01  0.308314E-01  0.331119E-01
  0.327960E-01  0.312577E-01  0.304821E-01  0.312577E-01  0.327960E-01  0.331119E-01
  0.308314E-01  0.273088E-01  0.256197E-01  0.273088E-01  0.308314E-01  0.328514E-01
  0.324766E-01  0.313467E-01  0.304821E-01  0.304821E-01  0.313467E-01  0.324766E-01
  0.328514E-01  0.320221E-01  0.309377E-01  0.309377E-01  0.320221E-01  0.328514E-01
  0.318085E-01  0.315875E-01  0.313467E-01  0.312577E-01  0.313467E-01  0.315875E-01
  0.318085E-01  0.317348E-01  0.313825E-01  0.311734E-01  0.313825E-01  0.317348E-01
  0.318085E-01  0.318085E-01  0.324766E-01  0.327960E-01  0.327960E-01  0.324766E-01
  0.318085E-01  0.308870E-01  0.299901E-01  0.294410E-01  0.294410E-01  0.299901E-01
  0.308870E-01  0.318085E-01  0.328514E-01  0.331119E-01  0.330667E-01  0.331119E-01
  0.328514E-01  0.317348E-01  0.299901E-01  0.284746E-01  0.278927E-01  0.284746E-01
  0.299901E-01  0.317348E-01  0.328514E-01  0.308314E-01  0.293233E-01  0.293233E-01
  0.308314E-01  0.320221E-01  0.313825E-01  0.294410E-01  0.278927E-01  0.278927E-01
  0.294410E-01  0.313825E-01  0.320221E-01  0.308314E-01  0.225702E-01  0.204587E-01
  0.225702E-01  0.273088E-01  0.309377E-01  0.311734E-01  0.294410E-01  0.284746E-01
  0.294410E-01  0.311734E-01  0.309377E-01  0.273088E-01  0.225702E-01  0.117656E-01
  0.117656E-01  0.174254E-01  0.256197E-01  0.309377E-01  0.313825E-01  0.299901E-01
  0.299901E-01  0.313825E-01  0.309377E-01  0.256197E-01  0.174254E-01  0.117656E-01
  0.511015E-02  0.840254E-02  0.174254E-01  0.273088E-01  0.320221E-01  0.317348E-01
  0.308870E-01  0.317348E-01  0.320221E-01  0.273088E-01  0.174254E-01  0.840254E-02
  0.511015E-02  0.511015E-02  0.117656E-01  0.225702E-01  0.308314E-01  0.328514E-01
  0.318085E-01  0.318085E-01  0.328514E-01  0.308314E-01  0.225702E-01  0.117656E-01
  0.511015E-02  0.511015E-02  0.148644E-01  0.225702E-01  0.299605E-01  0.326700E-01
  0.316704E-01  0.307446E-01  0.316704E-01  0.326700E-01  0.299605E-01  0.225702E-01
  0.148644E-01  0.117656E-01  0.148644E-01  0.225702E-01  0.293233E-01  0.330667E-01
  0.327960E-01  0.313467E-01  0.313467E-01  0.327960E-01  0.330667E-01  0.293233E-01
  0.225702E-01  0.174254E-01  0.174254E-01  0.225702E-01  0.299605E-01  0.330667E-01
  0.331794E-01  0.317111E-01  0.309160E-01  0.317111E-01  0.331794E-01  0.330667E-01
  0.299605E-01  0.256197E-01  0.235992E-01  0.256197E-01  0.299605E-01  0.326700E-01
  0.327960E-01  0.317111E-01  0.307456E-01  0.307456E-01  0.317111E-01  0.327960E-01
  0.326700E-01  0.309377E-01  0.291157E-01  0.291157E-01  0.309377E-01  0.326700E-01
  0.316704E-01  0.313467E-01  0.309160E-01  0.307456E-01  0.309160E-01  0.313467E-01
  0.316704E-01  0.313825E-01  0.305829E-01  0.301346E-01  0.305829E-01  0.313825E-01
  0.316704E-01  0.307446E-01  0.313467E-01  0.317111E-01  0.317111E-01  0.313467E-01
  0.307446E-01  0.299901E-01  0.291794E-01  0.286055E-01  0.286055E-01  0.291794E-01
  0.299901E-01  0.307446E-01  0.316704E-01  0.327960E-01  0.331794E-01  0.327960E-01
  0.316704E-01  0.299901E-01  0.282125E-01  0.268899E-01  0.264068E-01  0.268899E-01
  0.282125E-01  0.299901E-01  0.316704E-01  0.326700E-01  0.330667E-01  0.330667E-01
  0.326700E-01  0.313825E-01  0.291794E-01  0.268899E-01  0.254909E-01  0.254909E-01
  0.268899E-01  0.291794E-01  0.313825E-01  0.326700E-01  0.299605E-01  0.293233E-01
  0.299605E-01  0.309377E-01  0.305829E-01  0.286055E-01  0.264068E-01  0.254909E-01
  0.264068E-01  0.286055E-01  0.305829E-01  0.309377E-01  0.299605E-01  0.225702E-01
  0.225702E-01  0.256197E-01  0.291157E-01  0.301346E-01  0.286055E-01  0.268899E-01
  0.268899E-01  0.286055E-01  0.301346E-01  0.291157E-01  0.256197E-01  0.225702E-01
  0.148644E-01  0.174254E-01  0.235992E-01  0.291157E-01  0.305829E-01  0.291794E-01
  0.282125E-01  0.291794E-01  0.305829E-01  0.291157E-01  0.235992E-01  0.174254E-01
  0.148644E-01  0.117656E-01  0.174254E-01  0.256197E-01  0.309377E-01  0.313825E-01
  0.299901E-01  0.299901E-01  0.313825E-01  0.309377E-01  0.256197E-01  0.174254E-01
  0.117656E-01  0.117656E-01  0.148644E-01  0.225702E-01  0.299605E-01  0.326700E-01
  0.316704E-01  0.307446E-01  0.316704E-01  0.326700E-01  0.299605E-01  0.225702E-01
  0.148644E-01  0.117656E-01  0.148644E-01  0.263359E-01  0.308314E-01  0.326700E-01
  0.316010E-01  0.300587E-01  0.300587E-01  0.316010E-01  0.326700E-01  0.308314E-01
  0.263359E-01  0.225702E-01  0.225702E-01  0.263359E-01  0.308314E-01  0.331119E-01
  0.327960E-01  0.312577E-01  0.304821E-01  0.312577E-01  0.327960E-01  0.331119E-01
  0.308314E-01  0.273088E-01  0.256197E-01  0.273088E-01  0.308314E-01  0.326700E-01
  0.327960E-01  0.317111E-01  0.307456E-01  0.307456E-01  0.317111E-01  0.327960E-01
  0.326700E-01  0.309377E-01  0.291157E-01  0.291157E-01  0.309377E-01  0.326700E-01
  0.316010E-01  0.312577E-01  0.307456E-01  0.305361E-01  0.307456E-01  0.312577E-01
  0.316010E-01  0.311734E-01  0.301346E-01  0.295642E-01  0.301346E-01  0.311734E-01
  0.316010E-01  0.300587E-01  0.304821E-01  0.307456E-01  0.307456E-01  0.304821E-01
  0.300587E-01  0.294410E-01  0.286055E-01  0.279241E-01  0.279241E-01  0.286055E-01
  0.294410E-01  0.300587E-01  0.300587E-01  0.312577E-01  0.317111E-01  0.312577E-01
  0.300587E-01  0.284746E-01  0.268899E-01  0.256902E-01  0.252366E-01  0.256902E-01
  0.268899E-01  0.284746E-01  0.300587E-01  0.316010E-01  0.327960E-01  0.327960E-01
  0.316010E-01  0.294410E-01  0.268899E-01  0.247109E-01  0.234917E-01  0.234917E-01
  0.247109E-01  0.268899E-01  0.294410E-01  0.316010E-01  0.326700E-01  0.331119E-01
  0.326700E-01  0.311734E-01  0.286055E-01  0.256902E-01  0.234917E-01  0.226951E-01
  0.234917E-01  0.256902E-01  0.286055E-01  0.311734E-01  0.326700E-01  0.308314E-01
  0.308314E-01  0.309377E-01  0.301346E-01  0.279241E-01  0.252366E-01  0.234917E-01
  0.234917E-01  0.252366E-01  0.279241E-01  0.301346E-01  0.309377E-01  0.308314E-01
  0.263359E-01  0.273088E-01  0.291157E-01  0.295642E-01  0.279241E-01  0.256902E-01
  0.247109E-01  0.256902E-01  0.279241E-01  0.295642E-01  0.291157E-01  0.273088E-01
  0.263359E-01  0.225702E-01  0.256197E-01  0.291157E-01  0.301346E-01  0.286055E-01
  0.268899E-01  0.268899E-01  0.286055E-01  0.301346E-01  0.291157E-01  0.256197E-01
  0.225702E-01  0.225702E-01  0.225702E-01  0.273088E-01  0.309377E-01  0.311734E-01
  0.294410E-01  0.284746E-01  0.294410E-01  0.311734E-01  0.309377E-01  0.273088E-01
  0.225702E-01  0.204587E-01  0.225702E-01  0.263359E-01  0.308314E-01  0.326700E-01
  0.316010E-01  0.300587E-01  0.300587E-01  0.316010E-01  0.326700E-01  0.308314E-01
  0.263359E-01  0.225702E-01  0.225702E-01  0.263359E-01  0.324127E-01  0.328514E-01
  0.316704E-01  0.300587E-01  0.293566E-01  0.300587E-01  0.316704E-01  0.328514E-01
  0.324127E-01  0.308314E-01  0.299605E-01  0.308314E-01  0.324127E-01  0.328514E-01
  0.324766E-01  0.313467E-01  0.304821E-01  0.304821E-01  0.313467E-01  0.324766E-01
  0.328514E-01  0.320221E-01  0.309377E-01  0.309377E-01  0.320221E-01  0.328514E-01
  0.316704E-01  0.313467E-01  0.309160E-01  0.307456E-01  0.309160E-01  0.313467E-01
  0.316704E-01  0.313825E-01  0.305829E-01  0.301346E-01  0.305829E-01  0.313825E-01
  0.316704E-01  0.300587E-01  0.304821E-01  0.307456E-01  0.307456E-01  0.304821E-01
  0.300587E-01  0.294410E-01  0.286055E-01  0.279241E-01  0.279241E-01  0.286055E-01
  0.294410E-01  0.300587E-01  0.293566E-01  0.304821E-01  0.309160E-01  0.304821E-01
  0.293566E-01  0.278927E-01  0.264068E-01  0.252366E-01  0.247799E-01  0.252366E-01
  0.264068E-01  0.278927E-01  0.293566E-01  0.300587E-01  0.313467E-01  0.313467E-01
  0.300587E-01  0.278927E-01  0.254909E-01  0.234917E-01  0.223689E-01  0.223689E-01
  0.234917E-01  0.254909E-01  0.278927E-01  0.300587E-01  0.316704E-01  0.324766E-01
  0.316704E-01  0.294410E-01  0.264068E-01  0.234917E-01  0.214918E-01  0.207961E-01
  0.214918E-01  0.234917E-01  0.264068E-01  0.294410E-01  0.316704E-01  0.328514E-01
  0.328514E-01  0.313825E-01  0.286055E-01  0.252366E-01  0.223689E-01  0.207961E-01
  0.207961E-01  0.223689E-01  0.252366E-01  0.286055E-01  0.313825E-01  0.328514E-01
  0.324127E-01  0.320221E-01  0.305829E-01  0.279241E-01  0.247799E-01  0.223689E-01
  0.214918E-01  0.223689E-01  0.247799E-01  0.279241E-01  0.305829E-01  0.320221E-01
  0.324127E-01  0.308314E-01  0.309377E-01  0.301346E-01  0.279241E-01  0.252366E-01
  0.234917E-01  0.234917E-01  0.252366E-01  0.279241E-01  0.301346E-01  0.309377E-01
  0.308314E-01  0.308314E-01  0.299605E-01  0.309377E-01  0.305829E-01  0.286055E-01
  0.264068E-01  0.254909E-01  0.264068E-01  0.286055E-01  0.305829E-01  0.309377E-01
  0.299605E-01  0.293233E-01  0.299605E-01  0.308314E-01  0.320221E-01  0.313825E-01
  0.294410E-01  0.278927E-01  0.278927E-01  0.294410E-01  0.313825E-01  0.320221E-01
  0.308314E-01  0.293233E-01  0.293233E-01  0.308314E-01  0.324127E-01  0.328514E-01
  0.316704E-01  0.300587E-01  0.293566E-01  0.300587E-01  0.316704E-01  0.328514E-01
  0.324127E-01  0.308314E-01  0.299605E-01  0.308314E-01  0.324127E-01  0.326523E-01
  0.318085E-01  0.307446E-01  0.300587E-01  0.300587E-01  0.307446E-01  0.318085E-01
  0.326523E-01  0.328514E-01  0.326700E-01  0.326700E-01  0.328514E-01  0.326523E-01
  0.318085E-01  0.315875E-01  0.313467E-01  0.312577E-01  0.313467E-01  0.315875E-01
  0.318085E-01  0.317348E-01  0.313825E-01  0.311734E-01  0.313825E-01  0.317348E-01
  0.318085E-01  0.307446E-01  0.313467E-01  0.317111E-01  0.317111E-01  0.313467E-01
  0.307446E-01  0.299901E-01  0.291794E-01  0.286055E-01  0.286055E-01  0.291794E-01
  0.299901E-01  0.307446E-01  0.300587E-01  0.312577E-01  0.317111E-01  0.312577E-01
  0.300587E-01  0.284746E-01  0.268899E-01  0.256902E-01  0.252366E-01  0.256902E-01
  0.268899E-01  0.284746E-01  0.300587E-01  0.300587E-01  0.313467E-01  0.313467E-01
  0.300587E-01  0.278927E-01  0.254909E-01  0.234917E-01  0.223689E-01  0.223689E-01
  0.234917E-01  0.254909E-01  0.278927E-01  0.300587E-01  0.307446E-01  0.315875E-01
  0.307446E-01  0.284746E-01  0.254909E-01  0.226951E-01  0.207961E-01  0.201361E-01
  0.207961E-01  0.226951E-01  0.254909E-01  0.284746E-01  0.307446E-01  0.318085E-01
  0.318085E-01  0.299901E-01  0.268899E-01  0.234917E-01  0.207961E-01  0.193733E-01
  0.193733E-01  0.207961E-01  0.234917E-01  0.268899E-01  0.299901E-01  0.318085E-01
  0.326523E-01  0.317348E-01  0.291794E-01  0.256902E-01  0.223689E-01  0.201361E-01
  0.193733E-01  0.201361E-01  0.223689E-01  0.256902E-01  0.291794E-01  0.317348E-01
  0.326523E-01  0.328514E-01  0.313825E-01  0.286055E-01  0.252366E-01  0.223689E-01
  0.207961E-01  0.207961E-01  0.223689E-01  0.252366E-01  0.286055E-01  0.313825E-01
  0.328514E-01  0.328514E-01  0.326700E-01  0.311734E-01  0.286055E-01  0.256902E-01
  0.234917E-01  0.226951E-01  0.234917E-01  0.256902E-01  0.286055E-01  0.311734E-01
  0.326700E-01  0.331119E-01  0.326700E-01  0.326700E-01  0.313825E-01  0.291794E-01
  0.268899E-01  0.254909E-01  0.254909E-01  0.268899E-01  0.291794E-01  0.313825E-01
  0.326700E-01  0.330667E-01  0.330667E-01  0.326700E-01  0.328514E-01  0.317348E-01
  0.299901E-01  0.284746E-01  0.278927E-01  0.284746E-01  0.299901E-01  0.317348E-01
  0.328514E-01  0.331119E-01  0.330667E-01  0.331119E-01  0.328514E-01  0.326523E-01
  0.318085E-01  0.307446E-01  0.300587E-01  0.300587E-01  0.307446E-01  0.318085E-01
  0.326523E-01  0.328514E-01  0.326700E-01  0.326700E-01  0.328514E-01  0.326523E-01
  0.318773E-01  0.318085E-01  0.316704E-01  0.316010E-01  0.316704E-01  0.318085E-01
  0.318773E-01  0.318085E-01  0.316704E-01  0.316010E-01  0.316704E-01  0.318085E-01
  0.318773E-01  0.318085E-01  0.324766E-01  0.327960E-01  0.327960E-01  0.324766E-01
  0.318085E-01  0.308870E-01  0.299901E-01  0.294410E-01  0.294410E-01  0.299901E-01
  0.308870E-01  0.318085E-01  0.316704E-01  0.327960E-01  0.331794E-01  0.327960E-01
  0.316704E-01  0.299901E-01  0.282125E-01  0.268899E-01  0.264068E-01  0.268899E-01
  0.282125E-01  0.299901E-01  0.316704E-01  0.316010E-01  0.327960E-01  0.327960E-01
  0.316010E-01  0.294410E-01  0.268899E-01  0.247109E-01  0.234917E-01  0.234917E-01
  0.247109E-01  0.268899E-01  0.294410E-01  0.316010E-01  0.316704E-01  0.324766E-01
  0.316704E-01  0.294410E-01  0.264068E-01  0.234917E-01  0.214918E-01  0.207961E-01
  0.214918E-01  0.234917E-01  0.264068E-01  0.294410E-01  0.316704E-01  0.318085E-01
  0.318085E-01  0.299901E-01  0.268899E-01  0.234917E-01  0.207961E-01  0.193733E-01
  0.193733E-01  0.207961E-01  0.234917E-01  0.268899E-01  0.299901E-01  0.318085E-01
  0.318773E-01  0.308870E-01  0.282125E-01  0.247109E-01  0.214918E-01  0.193733E-01
  0.186565E-01  0.193733E-01  0.214918E-01  0.247109E-01  0.282125E-01  0.308870E-01
  0.318773E-01  0.318085E-01  0.299901E-01  0.268899E-01  0.234917E-01  0.207961E-01
  0.193733E-01  0.193733E-01  0.207961E-01  0.234917E-01  0.268899E-01  0.299901E-01
  0.318085E-01  0.318085E-01  0.316704E-01  0.294410E-01  0.264068E-01  0.234917E-01
  0.214918E-01  0.207961E-01  0.214918E-01  0.234917E-01  0.264068E-01  0.294410E-01
  0.316704E-01  0.324766E-01  0.316704E-01  0.316010E-01  0.294410E-01  0.268899E-01
  0.247109E-01  0.234917E-01  0.234917E-01  0.247109E-01  0.268899E-01  0.294410E-01
  0.316010E-01  0.327960E-01  0.327960E-01  0.316010E-01  0.316704E-01  0.299901E-01
  0.282125E-01  0.268899E-01  0.264068E-01  0.268899E-01  0.282125E-01  0.299901E-01
  0.316704E-01  0.327960E-01  0.331794E-01  0.327960E-01  0.316704E-01  0.318085E-01
  0.308870E-01  0.299901E-01  0.294410E-01  0.294410E-01  0.299901E-01  0.308870E-01
  0.318085E-01  0.324766E-01  0.327960E-01  0.327960E-01  0.324766E-01  0.318085E-01
  0.318773E-01  0.318085E-01  0.316704E-01  0.316010E-01  0.316704E-01  0.318085E-01
  0.318773E-01  0.318085E-01  0.316704E-01  0.316010E-01  0.316704E-01  0.318085E-01
  0.318773E-01  0.326523E-01  0.328514E-01  0.326700E-01  0.326700E-01  0.328514E-01
  0.326523E-01  0.318085E-01  0.307446E-01  0.300587E-01  0.300587E-01  0.307446E-01
  0.318085E-01  0.326523E-01  0.328514E-01  0.331119E-01  0.330667E-01  0.331119E-01
  0.328514E-01  0.317348E-01  0.299901E-01  0.284746E-01  0.278927E-01  0.284746E-01
  0.299901E-01  0.317348E-01  0.328514E-01  0.326700E-01  0.330667E-01  0.330667E-01
  0.326700E-01  0.313825E-01  0.291794E-01  0.268899E-01  0.254909E-01  0.254909E-01
  0.268899E-01  0.291794E-01  0.313825E-01  0.326700E-01  0.326700E-01  0.331119E-01
  0.326700E-01  0.311734E-01  0.286055E-01  0.256902E-01  0.234917E-01  0.226951E-01
  0.234917E-01  0.256902E-01  0.286055E-01  0.311734E-01  0.326700E-01  0.328514E-01
  0.328514E-01  0.313825E-01  0.286055E-01  0.252366E-01  0.223689E-01  0.207961E-01
  0.207961E-01  0.223689E-01  0.252366E-01  0.286055E-01  0.313825E-01  0.328514E-01
  0.326523E-01  0.317348E-01  0.291794E-01  0.256902E-01  0.223689E-01  0.201361E-01
  0.193733E-01  0.201361E-01  0.223689E-01  0.256902E-01  0.291794E-01  0.317348E-01
  0.326523E-01  0.318085E-01  0.299901E-01  0.268899E-01  0.234917E-01  0.207961E-01
  0.193733E-01  0.193733E-01  0.207961E-01  0.234917E-01  0.268899E-01  0.299901E-01
  0.318085E-01  0.318085E-01  0.307446E-01  0.284746E-01  0.254909E-01  0.226951E-01
  0.207961E-01  0.201361E-01  0.207961E-01  0.226951E-01  0.254909E-01  0.284746E-01
  0.307446E-01  0.315875E-01  0.307446E-01  0.300587E-01  0.278927E-01  0.254909E-01
  0.234917E-01  0.223689E-01  0.223689E-01  0.234917E-01  0.254909E-01  0.278927E-01
  0.300587E-01  0.313467E-01  0.313467E-01  0.300587E-01  0.300587E-01  0.284746E-01
  0.268899E-01  0.256902E-01  0.252366E-01  0.256902E-01  0.268899E-01  0.284746E-01
  0.300587E-01  0.312577E-01  0.317111E-01  0.312577E-01  0.300587E-01  0.307446E-01
  0.299901E-01  0.291794E-01  0.286055E-01  0.286055E-01  0.291794E-01  0.299901E-01
  0.307446E-01  0.313467E-01  0.317111E-01  0.317111E-01  0.313467E-01  0.307446E-01
  0.318085E-01  0.317348E-01  0.313825E-01  0.311734E-01  0.313825E-01  0.317348E-01
  0.318085E-01  0.315875E-01  0.313467E-01  0.312577E-01  0.313467E-01  0.315875E-01
  0.318085E-01  0.326523E-01  0.328514E-01  0.326700E-01  0.326700E-01  0.328514E-01
  0.326523E-01  0.318085E-01  0.307446E-01  0.300587E-01  0.300587E-01  0.307446E-01
  0.318085E-01  0.326523E-01  0.324127E-01  0.308314E-01  0.299605E-01  0.308314E-01
  0.324127E-01  0.328514E-01  0.316704E-01  0.300587E-01  0.293566E-01  0.300587E-01
  0.316704E-01  0.328514E-01  0.324127E-01  0.308314E-01  0.293233E-01  0.293233E-01
  0.308314E-01  0.320221E-01  0.313825E-01  0.294410E-01  0.278927E-01  0.278927E-01
  0.294410E-01  0.313825E-01  0.320221E-01  0.308314E-01  0.299605E-01  0.293233E-01
  0.299605E-01  0.309377E-01  0.305829E-01  0.286055E-01  0.264068E-01  0.254909E-01
  0.264068E-01  0.286055E-01  0.305829E-01  0.309377E-01  0.299605E-01  0.308314E-01
  0.308314E-01  0.309377E-01  0.301346E-01  0.279241E-01  0.252366E-01  0.234917E-01
  0.234917E-01  0.252366E-01  0.279241E-01  0.301346E-01  0.309377E-01  0.308314E-01
  0.324127E-01  0.320221E-01  0.305829E-01  0.279241E-01  0.247799E-01  0.223689E-01
  0.214918E-01  0.223689E-01  0.247799E-01  0.279241E-01  0.305829E-01  0.320221E-01
  0.324127E-01  0.328514E-01  0.313825E-01  0.286055E-01  0.252366E-01  0.223689E-01
  0.207961E-01  0.207961E-01  0.223689E-01  0.252366E-01  0.286055E-01  0.313825E-01
  0.328514E-01  0.328514E-01  0.316704E-01  0.294410E-01  0.264068E-01  0.234917E-01
  0.214918E-01  0.207961E-01  0.214918E-01  0.234917E-01  0.264068E-01  0.294410E-01
  0.316704E-01  0.324766E-01  0.316704E-01  0.300587E-01  0.278927E-01  0.254909E-01
  0.234917E-01  0.223689E-01  0.223689E-01  0.234917E-01  0.254909E-01  0.278927E-01
  0.300587E-01  0.313467E-01  0.313467E-01  0.300587E-01  0.293566E-01  0.278927E-01
  0.264068E-01  0.252366E-01  0.247799E-01  0.252366E-01  0.264068E-01  0.278927E-01
  0.293566E-01  0.304821E-01  0.309160E-01  0.304821E-01  0.293566E-01  0.300587E-01
  0.294410E-01  0.286055E-01  0.279241E-01  0.279241E-01  0.286055E-01  0.294410E-01
  0.300587E-01  0.304821E-01  0.307456E-01  0.307456E-01  0.304821E-01  0.300587E-01
  0.316704E-01  0.313825E-01  0.305829E-01  0.301346E-01  0.305829E-01  0.313825E-01
  0.316704E-01  0.313467E-01  0.309160E-01  0.307456E-01  0.309160E-01  0.313467E-01
  0.316704E-01  0.328514E-01  0.320221E-01  0.309377E-01  0.309377E-01  0.320221E-01
  0.328514E-01  0.324766E-01  0.313467E-01  0.304821E-01  0.304821E-01  0.313467E-01
  0.324766E-01  0.328514E-01  0.324127E-01  0.308314E-01  0.299605E-01  0.308314E-01
  0.324127E-01  0.328514E-01  0.316704E-01  0.300587E-01  0.293566E-01  0.300587E-01
  0.316704E-01  0.328514E-01  0.324127E-01  0.263359E-01  0.225702E-01  0.225702E-01
  0.263359E-01  0.308314E-01  0.326700E-01  0.316010E-01  0.300587E-01  0.300587E-01
  0.316010E-01  0.326700E-01  0.308314E-01  0.263359E-01  0.225702E-01  0.204587E-01
  0.225702E-01  0.273088E-01  0.309377E-01  0.311734E-01  0.294410E-01  0.284746E-01
  0.294410E-01  0.311734E-01  0.309377E-01  0.273088E-01  0.225702E-01  0.225702E-01
  0.225702E-01  0.256197E-01  0.291157E-01  0.301346E-01  0.286055E-01  0.268899E-01
  0.268899E-01  0.286055E-01  0.301346E-01  0.291157E-01  0.256197E-01  0.225702E-01
  0.263359E-01  0.273088E-01  0.291157E-01  0.295642E-01  0.279241E-01  0.256902E-01
  0.247109E-01  0.256902E-01  0.279241E-01  0.295642E-01  0.291157E-01  0.273088E-01
  0.263359E-01  0.308314E-01  0.309377E-01  0.301346E-01  0.279241E-01  0.252366E-01
  0.234917E-01  0.234917E-01  0.252366E-01  0.279241E-01  0.301346E-01  0.309377E-01
  0.308314E-01  0.308314E-01  0.326700E-01  0.311734E-01  0.286055E-01  0.256902E-01
  0.234917E-01  0.226951E-01  0.234917E-01  0.256902E-01  0.286055E-01  0.311734E-01
  0.326700E-01  0.331119E-01  0.326700E-01  0.316010E-01  0.294410E-01  0.268899E-01
  0.247109E-01  0.234917E-01  0.234917E-01  0.247109E-01  0.268899E-01  0.294410E-01
  0.316010E-01  0.327960E-01  0.327960E-01  0.316010E-01  0.300587E-01  0.284746E-01
  0.268899E-01  0.256902E-01  0.252366E-01  0.256902E-01  0.268899E-01  0.284746E-01
  0.300587E-01  0.312577E-01  0.317111E-01  0.312577E-01  0.300587E-01  0.300587E-01
  0.294410E-01  0.286055E-01  0.279241E-01  0.279241E-01  0.286055E-01  0.294410E-01
  0.300587E-01  0.304821E-01  0.307456E-01  0.307456E-01  0.304821E-01  0.300587E-01
  0.316010E-01  0.311734E-01  0.301346E-01  0.295642E-01  0.301346E-01  0.311734E-01
  0.316010E-01  0.312577E-01  0.307456E-01  0.305361E-01  0.307456E-01  0.312577E-01
  0.316010E-01  0.326700E-01  0.309377E-01  0.291157E-01  0.291157E-01  0.309377E-01
  0.326700E-01  0.327960E-01  0.317111E-01  0.307456E-01  0.307456E-01  0.317111E-01
  0.327960E-01  0.326700E-01  0.308314E-01  0.273088E-01  0.256197E-01  0.273088E-01
  0.308314E-01  0.331119E-01  0.327960E-01  0.312577E-01  0.304821E-01  0.312577E-01
  0.327960E-01  0.331119E-01  0.308314E-01  0.263359E-01  0.225702E-01  0.225702E-01
  0.263359E-01  0.308314E-01  0.326700E-01  0.316010E-01  0.300587E-01  0.300587E-01
  0.316010E-01  0.326700E-01  0.308314E-01  0.263359E-01  0.148644E-01  0.117656E-01
  0.148644E-01  0.225702E-01  0.299605E-01  0.326700E-01  0.316704E-01  0.307446E-01
  0.316704E-01  0.326700E-01  0.299605E-01  0.225702E-01  0.148644E-01  0.117656E-01
  0.117656E-01  0.174254E-01  0.256197E-01  0.309377E-01  0.313825E-01  0.299901E-01
  0.299901E-01  0.313825E-01  0.309377E-01  0.256197E-01  0.174254E-01  0.117656E-01
  0.148644E-01  0.174254E-01  0.235992E-01  0.291157E-01  0.305829E-01  0.291794E-01
  0.282125E-01  0.291794E-01  0.305829E-01  0.291157E-01  0.235992E-01  0.174254E-01
  0.148644E-01  0.225702E-01  0.256197E-01  0.291157E-01  0.301346E-01  0.286055E-01
  0.268899E-01  0.268899E-01  0.286055E-01  0.301346E-01  0.291157E-01  0.256197E-01
  0.225702E-01  0.225702E-01  0.299605E-01  0.309377E-01  0.305829E-01  0.286055E-01
  0.264068E-01  0.254909E-01  0.264068E-01  0.286055E-01  0.305829E-01  0.309377E-01
  0.299605E-01  0.293233E-01  0.299605E-01  0.326700E-01  0.313825E-01  0.291794E-01
  0.268899E-01  0.254909E-01  0.254909E-01  0.268899E-01  0.291794E-01  0.313825E-01
  0.326700E-01  0.330667E-01  0.330667E-01  0.326700E-01  0.316704E-01  0.299901E-01
  0.282125E-01  0.268899E-01  0.264068E-01  0.268899E-01  0.282125E-01  0.299901E-01
  0.316704E-01  0.327960E-01  0.331794E-01  0.327960E-01  0.316704E-01  0.307446E-01
  0.299901E-01  0.291794E-01  0.286055E-01  0.286055E-01  0.291794E-01  0.299901E-01
  0.307446E-01  0.313467E-01  0.317111E-01  0.317111E-01  0.313467E-01  0.307446E-01
  0.316704E-01  0.313825E-01  0.305829E-01  0.301346E-01  0.305829E-01  0.313825E-01
  0.316704E-01  0.313467E-01  0.309160E-01  0.307456E-01  0.309160E-01  0.313467E-01
  0.316704E-01  0.326700E-01  0.309377E-01  0.291157E-01  0.291157E-01  0.309377E-01
  0.326700E-01  0.327960E-01  0.317111E-01  0.307456E-01  0.307456E-01  0.317111E-01
  0.327960E-01  0.326700E-01  0.299605E-01  0.256197E-01  0.235992E-01  0.256197E-01
  0.299605E-01  0.330667E-01  0.331794E-01  0.317111E-01  0.309160E-01  0.317111E-01
  0.331794E-01  0.330667E-01  0.299605E-01  0.225702E-01  0.174254E-01  0.174254E-01
  0.225702E-01  0.293233E-01  0.330667E-01  0.327960E-01  0.313467E-01  0.313467E-01
  0.327960E-01  0.330667E-01  0.293233E-01  0.225702E-01  0.148644E-01  0.117656E-01
  0.148644E-01  0.225702E-01  0.299605E-01  0.326700E-01  0.316704E-01  0.307446E-01
  0.316704E-01  0.326700E-01  0.299605E-01  0.225702E-01  0.148644E-01  0.511015E-02
  0.511015E-02  0.117656E-01  0.225702E-01  0.308314E-01  0.328514E-01  0.318085E-01
  0.318085E-01  0.328514E-01  0.308314E-01  0.225702E-01  0.117656E-01  0.511015E-02
  0.511015E-02  0.840254E-02  0.174254E-01  0.273088E-01  0.320221E-01  0.317348E-01
  0.308870E-01  0.317348E-01  0.320221E-01  0.273088E-01  0.174254E-01  0.840254E-02
  0.511015E-02  0.117656E-01  0.174254E-01  0.256197E-01  0.309377E-01  0.313825E-01
  0.299901E-01  0.299901E-01  0.313825E-01  0.309377E-01  0.256197E-01  0.174254E-01
  0.117656E-01  0.117656E-01  0.225702E-01  0.273088E-01  0.309377E-01  0.311734E-01
  0.294410E-01  0.284746E-01  0.294410E-01  0.311734E-01  0.309377E-01  0.273088E-01
  0.225702E-01  0.204587E-01  0.225702E-01  0.308314E-01  0.320221E-01  0.313825E-01
  0.294410E-01  0.278927E-01  0.278927E-01  0.294410E-01  0.313825E-01  0.320221E-01
  0.308314E-01  0.293233E-01  0.293233E-01  0.308314E-01  0.328514E-01  0.317348E-01
  0.299901E-01  0.284746E-01  0.278927E-01  0.284746E-01  0.299901E-01  0.317348E-01
  0.328514E-01  0.331119E-01  0.330667E-01  0.331119E-01  0.328514E-01  0.318085E-01
  0.308870E-01  0.299901E-01  0.294410E-01  0.294410E-01  0.299901E-01  0.308870E-01
  0.318085E-01  0.324766E-01  0.327960E-01  0.327960E-01  0.324766E-01  0.318085E-01
  0.318085E-01  0.317348E-01  0.313825E-01  0.311734E-01  0.313825E-01  0.317348E-01
  0.318085E-01  0.315875E-01  0.313467E-01  0.312577E-01  0.313467E-01  0.315875E-01
  0.318085E-01  0.328514E-01  0.320221E-01  0.309377E-01  0.309377E-01  0.320221E-01
  0.328514E-01  0.324766E-01  0.313467E-01  0.304821E-01  0.304821E-01  0.313467E-01
  0.324766E-01  0.328514E-01  0.308314E-01  0.273088E-01  0.256197E-01  0.273088E-01
  0.308314E-01  0.331119E-01  0.327960E-01  0.312577E-01  0.304821E-01  0.312577E-01
  0.327960E-01  0.331119E-01  0.308314E-01  0.225702E-01  0.174254E-01  0.174254E-01
  0.225702E-01  0.293233E-01  0.330667E-01  0.327960E-01  0.313467E-01  0.313467E-01
  0.327960E-01  0.330667E-01  0.293233E-01  0.225702E-01  0.117656E-01  0.840254E-02
  0.117656E-01  0.204587E-01  0.293233E-01  0.331119E-01  0.324766E-01  0.315875E-01
  0.324766E-01  0.331119E-01  0.293233E-01  0.204587E-01  0.117656E-01  0.511015E-02
  0.511015E-02  0.117656E-01  0.225702E-01  0.308314E-01  0.328514E-01  0.318085E-01
  0.318085E-01  0.328514E-01  0.308314E-01  0.225702E-01  0.117656E-01  0.511015E-02
  0.176536E-02  0.511015E-02  0.148644E-01  0.263359E-01  0.324127E-01  0.326523E-01
  0.318773E-01  0.326523E-01  0.324127E-01  0.263359E-01  0.148644E-01  0.511015E-02
  0.176536E-02  0.511015E-02  0.117656E-01  0.225702E-01  0.308314E-01  0.328514E-01
  0.318085E-01  0.318085E-01  0.328514E-01  0.308314E-01  0.225702E-01  0.117656E-01
  0.511015E-02  0.511015E-02  0.148644E-01  0.225702E-01  0.299605E-01  0.326700E-01
  0.316704E-01  0.307446E-01  0.316704E-01  0.326700E-01  0.299605E-01  0.225702E-01
  0.148644E-01  0.117656E-01  0.148644E-01  0.263359E-01  0.308314E-01  0.326700E-01
  0.316010E-01  0.300587E-01  0.300587E-01  0.316010E-01  0.326700E-01  0.308314E-01
  0.263359E-01  0.225702E-01  0.225702E-01  0.263359E-01  0.324127E-01  0.328514E-01