 CRYSTAL
 PRIMVEC
   -1.984414532    0.000000000    1.984414532
    0.000000000    1.984414532    1.984414532
   -1.984414532    1.984414532    0.000000000
 PRIMCOORD
           1           1
Al        0.000000000    0.000000000    0.000000000
BEGIN_BLOCK_DATAGRID_3D
3D_PWSCF
DATAGRID_3D_UNKNOWN
          41          41          41
  0.000000  0.000000  0.000000
   -1.984415    0.000000    1.984415
    0.000000    1.984415    1.984415
   -1.984415    1.984415    0.000000
  0.162784E-02  0.207186E-02  0.334608E-02  0.530390E-02  0.777072E-02  0.105962E-01
  0.136679E-01  0.168893E-01  0.201493E-01  0.233089E-01  0.262113E-01  0.287063E-01
  0.306766E-01  0.320592E-01  0.328584E-01  0.331467E-01  0.330539E-01  0.327423E-01
  0.323769E-01  0.320965E-01  0.319924E-01  0.320965E-01  0.323769E-01  0.327423E-01
  0.330539E-01  0.331467E-01  0.328584E-01  0.320592E-01  0.306766E-01  0.287063E-01
  0.262113E-01  0.233089E-01  0.201493E-01  0.168893E-01  0.136679E-01  0.105962E-01
  0.777072E-02  0.530390E-02  0.334608E-02  0.207186E-02  0.162784E-02  0.207186E-02
  0.293049E-02  0.454324E-02  0.674743E-02  0.938120E-02  0.123164E-01  0.154521E-01
  0.186858E-01  0.218907E-01  0.249158E-01  0.276045E-01  0.298213E-01  0.314757E-01
  0.325391E-01  0.330517E-01  0.331176E-01  0.328863E-01  0.325240E-01  0.321847E-01
  0.319841E-01  0.319841E-01  0.321847E-01  0.325240E-01  0.328863E-01  0.331176E-01
  0.330517E-01  0.325391E-01  0.314757E-01  0.298213E-01  0.276045E-01  0.249158E-01
  0.218907E-01  0.186858E-01  0.154521E-01  0.123164E-01  0.938120E-02  0.674743E-02
  0.454324E-02  0.293049E-02  0.207186E-02  0.207186E-02  0.334608E-02  0.454324E-02
  0.639555E-02  0.875029E-02  0.114712E-01  0.144485E-01  0.175805E-01  0.207487E-01
  0.238093E-01  0.266055E-01  0.289908E-01  0.308544E-01  0.321403E-01  0.328587E-01
  0.330863E-01  0.329531E-01  0.326187E-01  0.322428E-01  0.319588E-01  0.318541E-01
  0.319588E-01  0.322428E-01  0.326187E-01  0.329531E-01  0.330863E-01  0.328587E-01
  0.321403E-01  0.308544E-01  0.289908E-01  0.266055E-01  0.238093E-01  0.207487E-01
  0.175805E-01  0.144485E-01  0.114712E-01  0.875029E-02  0.639555E-02  0.454324E-02
  0.334608E-02  0.293049E-02  0.334608E-02  0.530390E-02  0.674743E-02  0.875029E-02
  0.111832E-01  0.139323E-01  0.168927E-01  0.199495E-01  0.229654E-01  0.257859E-01
  0.282596E-01  0.302616E-01  0.317151E-01  0.326044E-01  0.329797E-01  0.329492E-01
  0.326592E-01  0.322676E-01  0.319170E-01  0.317137E-01  0.317137E-01  0.319170E-01
  0.322676E-01  0.326592E-01  0.329492E-01  0.329797E-01  0.326044E-01  0.317151E-01
  0.302616E-01  0.282596E-01  0.257859E-01  0.229654E-01  0.199495E-01  0.168927E-01
  0.139323E-01  0.111832E-01  0.875029E-02  0.674743E-02  0.530390E-02  0.454324E-02
  0.454324E-02  0.530390E-02  0.777072E-02  0.938120E-02  0.114712E-01  0.139323E-01
  0.166592E-01  0.195385E-01  0.224374E-01  0.252055E-01  0.276901E-01  0.297580E-01
  0.313169E-01  0.323307E-01  0.328263E-01  0.328897E-01  0.326507E-01  0.322593E-01
  0.318599E-01  0.315697E-01  0.314644E-01  0.315697E-01  0.318599E-01  0.322593E-01
  0.326507E-01  0.328897E-01  0.328263E-01  0.323307E-01  0.313169E-01  0.297580E-01
  0.276901E-01  0.252055E-01  0.224374E-01  0.195385E-01  0.166592E-01  0.139323E-01
  0.114712E-01  0.938120E-02  0.777072E-02  0.674743E-02  0.639555E-02  0.674743E-02
  0.777072E-02  0.105962E-01  0.123164E-01  0.144485E-01  0.168927E-01  0.195385E-01
  0.222577E-01  0.249050E-01  0.273291E-01  0.293929E-01  0.309938E-01  0.320798E-01
  0.326586E-01  0.327963E-01  0.326050E-01  0.322231E-01  0.317907E-01  0.314289E-01
  0.312253E-01  0.312253E-01  0.314289E-01  0.317907E-01  0.322231E-01  0.326050E-01
  0.327963E-01  0.326586E-01  0.320798E-01  0.309938E-01  0.293929E-01  0.273291E-01
  0.249050E-01  0.222577E-01  0.195385E-01  0.168927E-01  0.144485E-01  0.123164E-01
  0.105962E-01  0.938120E-02  0.875029E-02  0.875029E-02  0.938120E-02  0.105962E-01
  0.136679E-01  0.154521E-01  0.175805E-01  0.199495E-01  0.224374E-01  0.249050E-01
  0.272055E-01  0.292013E-01  0.307836E-01  0.318890E-01  0.325097E-01  0.326945E-01
  0.325393E-01  0.321688E-01  0.317152E-01  0.312978E-01  0.310090E-01  0.309062E-01
  0.310090E-01  0.312978E-01  0.317152E-01  0.321688E-01  0.325393E-01  0.326945E-01
  0.325097E-01  0.318890E-01  0.307836E-01  0.292013E-01  0.272055E-01  0.249050E-01
  0.224374E-01  0.199495E-01  0.175805E-01  0.154521E-01  0.136679E-01  0.123164E-01
  0.114712E-01  0.111832E-01  0.114712E-01  0.123164E-01  0.136679E-01  0.168893E-01
  0.186858E-01  0.207487E-01  0.229654E-01  0.252055E-01  0.273291E-01  0.292013E-01
  0.307108E-01  0.317861E-01  0.324076E-01  0.326095E-01  0.324730E-01  0.321097E-01
  0.316418E-01  0.311829E-01  0.308247E-01  0.306298E-01  0.306298E-01  0.308247E-01
  0.311829E-01  0.316418E-01  0.321097E-01  0.324730E-01  0.326095E-01  0.324076E-01
  0.317861E-01  0.307108E-01  0.292013E-01  0.273291E-01  0.252055E-01  0.229654E-01
  0.207487E-01  0.186858E-01  0.168893E-01  0.154521E-01  0.144485E-01  0.139323E-01
  0.139323E-01  0.144485E-01  0.154521E-01  0.168893E-01  0.201493E-01  0.218907E-01
  0.238093E-01  0.257859E-01  0.276901E-01  0.293929E-01  0.307836E-01  0.317861E-01
  0.323713E-01  0.325614E-01  0.324244E-01  0.320599E-01  0.315798E-01  0.310902E-01
  0.306785E-01  0.304071E-01  0.303126E-01  0.304071E-01  0.306785E-01  0.310902E-01
  0.315798E-01  0.320599E-01  0.324244E-01  0.325614E-01  0.323713E-01  0.317861E-01
  0.307836E-01  0.293929E-01  0.276901E-01  0.257859E-01  0.238093E-01  0.218907E-01
  0.201493E-01  0.186858E-01  0.175805E-01  0.168927E-01  0.166592E-01  0.168927E-01
  0.175805E-01  0.186858E-01  0.201493E-01  0.233089E-01  0.249158E-01  0.266055E-01
  0.282596E-01  0.297580E-01  0.309938E-01  0.318890E-01  0.324076E-01  0.325614E-01
  0.324067E-01  0.320316E-01  0.315382E-01  0.310250E-01  0.305734E-01  0.302423E-01
  0.300683E-01  0.300683E-01  0.302423E-01  0.305734E-01  0.310250E-01  0.315382E-01
  0.320316E-01  0.324067E-01  0.325614E-01  0.324076E-01  0.318890E-01  0.309938E-01
  0.297580E-01  0.282596E-01  0.266055E-01  0.249158E-01  0.233089E-01  0.218907E-01
  0.207487E-01  0.199495E-01  0.195385E-01  0.195385E-01  0.199495E-01  0.207487E-01
  0.218907E-01  0.233089E-01  0.262113E-01  0.276045E-01  0.289908E-01  0.302616E-01
  0.313169E-01  0.320798E-01  0.325097E-01  0.326095E-01  0.324244E-01  0.320316E-01
  0.315236E-01  0.309913E-01  0.305103E-01  0.301350E-01  0.298988E-01  0.298183E-01
  0.298988E-01  0.301350E-01  0.305103E-01  0.309913E-01  0.315236E-01  0.320316E-01
  0.324244E-01  0.326095E-01  0.325097E-01  0.320798E-01  0.313169E-01  0.302616E-01
  0.289908E-01  0.276045E-01  0.262113E-01  0.249158E-01  0.238093E-01  0.229654E-01
  0.224374E-01  0.222577E-01  0.224374E-01  0.229654E-01  0.238093E-01  0.249158E-01
  0.262113E-01  0.287063E-01  0.298213E-01  0.308544E-01  0.317151E-01  0.323307E-01
  0.326586E-01  0.326945E-01  0.324730E-01  0.320599E-01  0.315382E-01  0.309913E-01
  0.304894E-01  0.300825E-01  0.298002E-01  0.296567E-01  0.296567E-01  0.298002E-01
  0.300825E-01  0.304894E-01  0.309913E-01  0.315382E-01  0.320599E-01  0.324730E-01
  0.326945E-01  0.326586E-01  0.323307E-01  0.317151E-01  0.308544E-01  0.298213E-01
  0.287063E-01  0.276045E-01  0.266055E-01  0.257859E-01  0.252055E-01  0.249050E-01
  0.249050E-01  0.252055E-01  0.257859E-01  0.266055E-01  0.276045E-01  0.287063E-01
  0.306766E-01  0.314757E-01  0.321403E-01  0.326044E-01  0.328263E-01  0.327963E-01
  0.325393E-01  0.321097E-01  0.315798E-01  0.310250E-01  0.305103E-01  0.300825E-01
  0.297681E-01  0.295781E-01  0.295147E-01  0.295781E-01  0.297681E-01  0.300825E-01
  0.305103E-01  0.310250E-01  0.315798E-01  0.321097E-01  0.325393E-01  0.327963E-01
  0.328263E-01  0.326044E-01  0.321403E-01  0.314757E-01  0.306766E-01  0.298213E-01
  0.289908E-01  0.282596E-01  0.276901E-01  0.273291E-01  0.272055E-01  0.273291E-01
  0.276901E-01  0.282596E-01  0.289908E-01  0.298213E-01  0.306766E-01  0.320592E-01
  0.325391E-01  0.328587E-01  0.329797E-01  0.328897E-01  0.326050E-01  0.321688E-01
  0.316418E-01  0.310902E-01  0.305734E-01  0.301350E-01  0.298002E-01  0.295781E-01
  0.294682E-01  0.294682E-01  0.295781E-01  0.298002E-01  0.301350E-01  0.305734E-01
  0.310902E-01  0.316418E-01  0.321688E-01  0.326050E-01  0.328897E-01  0.329797E-01
  0.328587E-01  0.325391E-01  0.320592E-01  0.314757E-01  0.308544E-01  0.302616E-01
  0.297580E-01  0.293929E-01  0.292013E-01  0.292013E-01  0.293929E-01  0.297580E-01
  0.302616E-01  0.308544E-01  0.314757E-01  0.320592E-01  0.328584E-01  0.330517E-01
  0.330863E-01  0.329492E-01  0.326507E-01  0.322231E-01  0.317152E-01  0.311829E-01
  0.306785E-01  0.302423E-01  0.298988E-01  0.296567E-01  0.295147E-01  0.294682E-01
  0.295147E-01  0.296567E-01  0.298988E-01  0.302423E-01  0.306785E-01  0.311829E-01
  0.317152E-01  0.322231E-01  0.326507E-01  0.329492E-01  0.330863E-01  0.330517E-01
  0.328584E-01  0.325391E-01  0.321403E-01  0.317151E-01  0.313169E-01  0.309938E-01
  0.307836E-01  0.307108E-01  0.307836E-01  0.309938E-01  0.313169E-01  0.317151E-01
  0.321403E-01  0.325391E-01  0.328584E-01  0.331467E-01  0.331176E-01  0.329531E-01
  0.326592E-01  0.322593E-01  0.317907E-01  0.312978E-01  0.308247E-01  0.304071E-01
  0.300683E-01  0.298183E-01  0.296567E-01  0.295781E-01  0.295781E-01  0.296567E-01
  0.298183E-01  0.300683E-01  0.304071E-01  0.308247E-01  0.312978E-01  0.317907E-01
  0.322593E-01  0.326592E-01  0.329531E-01  0.331176E-01  0.331467E-01  0.330517E-01
  0.328587E-01  0.326044E-01  0.323307E-01  0.320798E-01  0.318890E-01  0.317861E-01
  0.317861E-01  0.318890E-01  0.320798E-01  0.323307E-01  0.326044E-01  0.328587E-01
  0.330517E-01  0.331467E-01  0.330539E-01  0.328863E-01  0.326187E-01  0.322676E-01
  0.318599E-01  0.314289E-01  0.310090E-01  0.306298E-01  0.303126E-01  0.300683E-01
  0.298988E-01  0.298002E-01  0.297681E-01  0.298002E-01  0.298988E-01  0.300683E-01
  0.303126E-01  0.306298E-01  0.310090E-01  0.314289E-01  0.318599E-01  0.322676E-01
  0.326187E-01  0.328863E-01  0.330539E-01  0.331176E-01  0.330863E-01  0.329797E-01
  0.328263E-01  0.326586E-01  0.325097E-01  0.324076E-01  0.323713E-01  0.324076E-01
  0.325097E-01  0.326586E-01  0.328263E-01  0.329797E-01  0.330863E-01  0.331176E-01
  0.330539E-01  0.327423E-01  0.325240E-01  0.322428E-01  0.319170E-01  0.315697E-01
  0.312253E-01  0.309062E-01  0.306298E-01  0.304071E-01  0.302423E-01  0.301350E-01
  0.300825E-01  0.300825E-01  0.301350E-01  0.302423E-01  0.304071E-01  0.306298E-01
  0.309062E-01  0.312253E-01  0.315697E-01  0.319170E-01  0.322428E-01  0.325240E-01
  0.327423E-01  0.328863E-01  0.329531E-01  0.329492E-01  0.328897E-01  0.327963E-01
  0.326945E-01  0.326095E-01  0.325614E-01  0.325614E-01  0.326095E-01  0.326945E-01
  0.327963E-01  0.328897E-01  0.329492E-01  0.329531E-01  0.328863E-01  0.327423E-01
  0.323769E-01  0.321847E-01  0.319588E-01  0.317137E-01  0.314644E-01  0.312253E-01
  0.310090E-01  0.308247E-01  0.306785E-01  0.305734E-01  0.305103E-01  0.304894E-01
  0.305103E-01  0.305734E-01  0.306785E-01  0.308247E-01  0.310090E-01  0.312253E-01
  0.314644E-01  0.317137E-01  0.319588E-01  0.321847E-01  0.323769E-01  0.325240E-01
  0.326187E-01  0.326592E-01  0.326507E-01  0.326050E-01  0.325393E-01  0.324730E-01
  0.324244E-01  0.324067E-01  0.324244E-01  0.324730E-01  0.325393E-01  0.326050E-01
  0.326507E-01  0.326592E-01  0.326187E-01  0.325240E-01  0.323769E-01  0.320965E-01
  0.319841E-01  0.318541E-01  0.317137E-01  0.315697E-01  0.314289E-01  0.312978E-01
  0.311829E-01  0.310902E-01  0.310250E-01  0.309913E-01  0.309913E-01  0.310250E-01
  0.310902E-01  0.311829E-01  0.312978E-01  0.314289E-01  0.315697E-01  0.317137E-01
  0.318541E-01  0.319841E-01  0.320965E-01  0.321847E-01  0.322428E-01  0.322676E-01
  0.322593E-01  0.322231E-01  0.321688E-01  0.321097E-01  0.320599E-01  0.320316E-01
  0.320316E-01  0.320599E-01  0.321097E-01  0.321688E-01  0.322231E-01  0.322593E-01
  0.322676E-01  0.322428E-01  0.321847E-01  0.320965E-01  0.319924E-01  0.319841E-01
  0.319588E-01  0.319170E-01  0.318599E-01  0.317907E-01  0.317152E-01  0.316418E-01
  0.315798E-01  0.315382E-01  0.315236E-01  0.315382E-01  0.315798E-01  0.316418E-01
  0.317152E-01  0.317907E-01  0.318599E-01  0.319170E-01  0.319588E-01  0.319841E-01
  0.319924E-01  0.319841E-01  0.319588E-01  0.319170E-01  0.318599E-01  0.317907E-01
  0.317152E-01  0.316418E-01  0.315798E-01  0.315382E-01  0.315236E-01  0.315382E-01
  0.315798E-01  0.316418E-01  0.317152E-01  0.317907E-01  0.318599E-01  0.319170E-01
  0.319588E-01  0.319841E-01  0.319924E-01  0.320965E-01  0.321847E-01  0.322428E-01
  0.322676E-01  0.322593E-01  0.322231E-01  0.321688E-01  0.321097E-01  0.320599E-01
  0.320316E-01  0.320316E-01  0.320599E-01  0.321097E-01  0.321688E-01  0.322231E-01
  0.322593E-01  0.322676E-01  0.322428E-01  0.321847E-01  0.320965E-01  0.319841E-01
  0.318541E-01  0.317137E-01  0.315697E-01  0.314289E-01  0.312978E-01  0.311829E-01
  0.310902E-01  0.310250E-01  0.309913E-01  0.309913E-01  0.310250E-01  0.310902E-01
  0.311829E-01  0.312978E-01  0.314289E-01  0.315697E-01  0.317137E-01  0.318541E-01
  0.319841E-01  0.320965E-01  0.323769E-01  0.325240E-01  0.326187E-01  0.326592E-01
  0.326507E-01  0.326050E-01  0.325393E-01  0.324730E-01  0.324244E-01  0.324067E-01
  0.324244E-01  0.324730E-01  0.325393E-01  0.326050E-01  0.326507E-01  0.326592E-01
  0.326187E-01  0.325240E-01  0.323769E-01  0.321847E-01  0.319588E-01  0.317137E-01
  0.314644E-01  0.312253E-01  0.310090E-01  0.308247E-01  0.306785E-01  0.305734E-01
  0.305103E-01  0.304894E-01  0.305103E-01  0.305734E-01  0.306785E-01  0.308247E-01
  0.310090E-01  0.312253E-01  0.314644E-01  0.317137E-01  0.319588E-01  0.321847E-01
  0.323769E-01  0.327423E-01  0.328863E-01  0.329531E-01  0.329492E-01  0.328897E-01
  0.327963E-01  0.326945E-01  0.326095E-01  0.325614E-01  0.325614E-01  0.326095E-01
  0.326945E-01  0.327963E-01  0.328897E-01  0.329492E-01  0.329531E-01  0.328863E-01
  0.327423E-01  0.325240E-01  0.322428E-01  0.319170E-01  0.315697E-01  0.312253E-01
  0.309062E-01  0.306298E-01  0.304071E-01  0.302423E-01  0.301350E-01  0.300825E-01
  0.300825E-01  0.301350E-01  0.302423E-01  0.304071E-01  0.306298E-01  0.309062E-01
  0.312253E-01  0.315697E-01  0.319170E-01  0.322428E-01  0.325240E-01  0.327423E-01
  0.330539E-01  0.331176E-01  0.330863E-01  0.329797E-01  0.328263E-01  0.326586E-01
  0.325097E-01  0.324076E-01  0.323713E-01  0.324076E-01  0.325097E-01  0.326586E-01
  0.328263E-01  0.329797E-01  0.330863E-01  0.331176E-01  0.330539E-01  0.328863E-01
  0.326187E-01  0.322676E-01  0.318599E-01  0.314289E-01  0.310090E-01  0.306298E-01
  0.303126E-01  0.300683E-01  0.298988E-01  0.298002E-01  0.297681E-01  0.298002E-01
  0.298988E-01  0.300683E-01  0.303126E-01  0.306298E-01  0.310090E-01  0.314289E-01
  0.318599E-01  0.322676E-01  0.326187E-01  0.328863E-01  0.330539E-01  0.331467E-01
  0.330517E-01  0.328587E-01  0.326044E-01  0.323307E-01  0.320798E-01  0.318890E-01
  0.317861E-01  0.317861E-01  0.318890E-01  0.320798E-01  0.323307E-01  0.326044E-01
  0.328587E-01  0.330517E-01  0.331467E-01  0.331176E-01  0.329531E-01  0.326592E-01
  0.322593E-01  0.317907E-01  0.312978E-01  0.308247E-01  0.304071E-01  0.300683E-01
  0.298183E-01  0.296567E-01  0.295781E-01  0.295781E-01  0.296567E-01  0.298183E-01
  0.300683E-01  0.304071E-01  0.308247E-01  0.312978E-01  0.317907E-01  0.322593E-01
  0.326592E-01  0.329531E-01  0.331176E-01  0.331467E-01  0.328584E-01  0.325391E-01
  0.321403E-01  0.317151E-01  0.313169E-01  0.309938E-01  0.307836E-01  0.307108E-01
  0.307836E-01  0.309938E-01  0.313169E-01  0.317151E-01  0.321403E-01  0.325391E-01
  0.328584E-01  0.330517E-01  0.330863E-01  0.329492E-01  0.326507E-01  0.322231E-01
  0.317152E-01  0.311829E-01  0.306785E-01  0.302423E-01  0.298988E-01  0.296567E-01
  0.295147E-01  0.294682E-01  0.295147E-01  0.296567E-01  0.298988E-01  0.302423E-01
  0.306785E-01  0.311829E-01  0.317152E-01  0.322231E-01  0.326507E-01  0.329492E-01
  0.330863E-01  0.330517E-01  0.328584E-01  0.320592E-01  0.314757E-01  0.308544E-01
  0.302616E-01  0.297580E-01  0.293929E-01  0.292013E-01  0.292013E-01  0.293929E-01
  0.297580E-01  0.302616E-01  0.308544E-01  0.314757E-01  0.320592E-01  0.325391E-01
  0.328587E-01  0.329797E-01  0.328897E-01  0.326050E-01  0.321688E-01  0.316418E-01
  0.310902E-01  0.305734E-01  0.301350E-01  0.298002E-01  0.295781E-01  0.294682E-01
  0.294682E-01  0.295781E-01  0.298002E-01  0.301350E-01  0.305734E-01  0.310902E-01
  0.316418E-01  0.321688E-01  0.326050E-01  0.328897E-01  0.329797E-01  0.328587E-01
  0.325391E-01  0.320592E-01  0.306766E-01  0.298213E-01  0.289908E-01  0.282596E-01
  0.276901E-01  0.273291E-01  0.272055E-01  0.273291E-01  0.276901E-01  0.282596E-01
  0.289908E-01  0.298213E-01  0.306766E-01  0.314757E-01  0.321403E-01  0.326044E-01
  0.328263E-01  0.327963E-01  0.325393E-01  0.321097E-01  0.315798E-01  0.310250E-01
  0.305103E-01  0.300825E-01  0.297681E-01  0.295781E-01  0.295147E-01  0.295781E-01
  0.297681E-01  0.300825E-01  0.305103E-01  0.310250E-01  0.315798E-01  0.321097E-01
  0.325393E-01  0.327963E-01  0.328263E-01  0.326044E-01  0.321403E-01  0.314757E-01
  0.306766E-01  0.287063E-01  0.276045E-01  0.266055E-01  0.257859E-01  0.252055E-01
  0.249050E-01  0.249050E-01  0.252055E-01  0.257859E-01  0.266055E-01  0.276045E-01
  0.287063E-01  0.298213E-01  0.308544E-01  0.317151E-01  0.323307E-01  0.326586E-01
  0.326945E-01  0.324730E-01  0.320599E-01  0.315382E-01  0.309913E-01  0.304894E-01
  0.300825E-01  0.298002E-01  0.296567E-01  0.296567E-01  0.298002E-01  0.300825E-01
  0.304894E-01  0.309913E-01  0.315382E-01  0.320599E-01  0.324730E-01  0.326945E-01
  0.326586E-01  0.323307E-01  0.317151E-01  0.308544E-01  0.298213E-01  0.287063E-01
  0.262113E-01  0.249158E-01  0.238093E-01  0.229654E-01  0.224374E-01  0.222577E-01
  0.224374E-01  0.229654E-01  0.238093E-01  0.249158E-01  0.262113E-01  0.276045E-01
  0.289908E-01  0.302616E-01  0.313169E-01  0.320798E-01  0.325097E-01  0.326095E-01
  0.324244E-01  0.320316E-01  0.315236E-01  0.309913E-01  0.305103E-01  0.301350E-01
  0.298988E-01  0.298183E-01  0.298988E-01  0.301350E-01  0.305103E-01  0.309913E-01
  0.315236E-01  0.320316E-01  0.324244E-01  0.326095E-01  0.325097E-01  0.320798E-01
  0.313169E-01  0.302616E-01  0.289908E-01  0.276045E-01  0.262113E-01  0.233089E-01
  0.218907E-01  0.207487E-01  0.199495E-01  0.195385E-01  0.195385E-01  0.199495E-01
  0.207487E-01  0.218907E-01  0.233089E-01  0.249158E-01  0.266055E-01  0.282596E-01
  0.297580E-01  0.309938E-01  0.318890E-01  0.324076E-01  0.325614E-01  0.324067E-01
  0.320316E-01  0.315382E-01  0.310250E-01  0.305734E-01  0.302423E-01  0.300683E-01
  0.300683E-01  0.302423E-01  0.305734E-01  0.310250E-01  0.315382E-01  0.320316E-01
  0.324067E-01  0.325614E-01  0.324076E-01  0.318890E-01  0.309938E-01  0.297580E-01
  0.282596E-01  0.266055E-01  0.249158E-01  0.233089E-01  0.201493E-01  0.186858E-01
  0.175805E-01  0.168927E-01  0.166592E-01  0.168927E-01  0.175805E-01  0.186858E-01
  0.201493E-01  0.218907E-01  0.238093E-01  0.257859E-01  0.276901E-01  0.293929E-01
  0.307836E-01  0.317861E-01  0.323713E-01  0.325614E-01  0.324244E-01  0.320599E-01
  0.315798E-01  0.310902E-01  0.306785E-01  0.304071E-01  0.303126E-01  0.304071E-01
  0.306785E-01  0.310902E-01  0.315798E-01  0.320599E-01  0.324244E-01  0.325614E-01
  0.323713E-01  0.317861E-01  0.307836E-01  0.293929E-01  0.276901E-01  0.257859E-01
  0.238093E-01  0.218907E-01  0.201493E-01  0.168893E-01  0.154521E-01  0.144485E-01
  0.139323E-01  0.139323E-01  0.144485E-01  0.154521E-01  0.168893E-01  0.186858E-01
  0.207487E-01  0.229654E-01  0.252055E-01  0.273291E-01  0.292013E-01  0.307108E-01
  0.317861E-01  0.324076E-01  0.326095E-01  0.324730E-01  0.321097E-01  0.316418E-01
  0.311829E-01  0.308247E-01  0.306298E-01  0.306298E-01  0.308247E-01  0.311829E-01
  0.316418E-01  0.321097E-01  0.324730E-01  0.326095E-01  0.324076E-01  0.317861E-01
  0.307108E-01  0.292013E-01  0.273291E-01  0.252055E-01  0.229654E-01  0.207487E-01
  0.186858E-01  0.168893E-01  0.136679E-01  0.123164E-01  0.114712E-01  0.111832E-01
  0.114712E-01  0.123164E-01  0.136679E-01  0.154521E-01  0.175805E-01  0.199495E-01
  0.224374E-01  0.249050E-01  0.272055E-01  0.292013E-01  0.307836E-01  0.318890E-01
  0.325097E-01  0.326945E-01  0.325393E-01  0.321688E-01  0.317152E-01  0.312978E-01
  0.310090E-01  0.309062E-01  0.310090E-01  0.312978E-01  0.317152E-01  0.321688E-01
  0.325393E-01  0.326945E-01  0.325097E-01  0.318890E-01  0.307836E-01  0.292013E-01
  0.272055E-01  0.249050E-01  0.224374E-01  0.199495E-01  0.175805E-01  0.154521E-01
  0.136679E-01  0.105962E-01  0.938120E-02  0.875029E-02  0.875029E-02  0.938120E-02
  0.105962E-01  0.123164E-01  0.144485E-01  0.168927E-01  0.195385E-01  0.222577E-01
  0.249050E-01  0.273291E-01  0.293929E-01  0.309938E-01  0.320798E-01  0.326586E-01
  0.327963E-01  0.326050E-01  0.322231E-01  0.317907E-01  0.314289E-01  0.312253E-01
  0.312253E-01  0.314289E-01  0.317907E-01  0.322231E-01  0.326050E-01  0.327963E-01
  0.326586E-01  0.320798E-01  0.309938E-01  0.293929E-01  0.273291E-01  0.249050E-01
  0.222577E-01  0.195385E-01  0.168927E-01  0.144485E-01  0.123164E-01  0.105962E-01
  0.777072E-02  0.674743E-02  0.639555E-02  0.674743E-02  0.777072E-02  0.938120E-02
  0.114712E-01  0.139323E-01  0.166592E-01  0.195385E-01  0.224374E-01  0.252055E-01
  0.276901E-01  0.297580E-01  0.313169E-01  0.323307E-01  0.328263E-01  0.328897E-01
  0.326507E-01  0.322593E-01  0.318599E-01  0.315697E-01  0.314644E-01  0.315697E-01
  0.318599E-01  0.322593E-01  0.326507E-01  0.328897E-01  0.328263E-01  0.323307E-01
  0.313169E-01  0.297580E-01  0.276901E-01  0.252055E-01  0.224374E-01  0.195385E-01
  0.166592E-01  0.139323E-01  0.114712E-01  0.938120E-02  0.777072E-02  0.530390E-02
  0.454324E-02  0.454324E-02  0.530390E-02  0.674743E-02  0.875029E-02  0.111832E-01
  0.139323E-01  0.168927E-01  0.199495E-01  0.229654E-01  0.257859E-01  0.282596E-01
  0.302616E-01  0.317151E-01  0.326044E-01  0.329797E-01  0.329492E-01  0.326592E-01
  0.322676E-01  0.319170E-01  0.317137E-01  0.317137E-01  0.319170E-01  0.322676E-01
  0.326592E-01  0.329492E-01  0.329797E-01  0.326044E-01  0.317151E-01  0.302616E-01
  0.282596E-01  0.257859E-01  0.229654E-01  0.199495E-01  0.168927E-01  0.139323E-01
  0.111832E-01  0.875029E-02  0.674743E-02  0.530390E-02  0.334608E-02  0.293049E-02
  0.334608E-02  0.454324E-02  0.639555E-02  0.875029E-02  0.114712E-01  0.144485E-01
  0.175805E-01  0.207487E-01  0.238093E-01  0.266055E-01  0.289908E-01  0.308544E-01
  0.321403E-01  0.328587E-01  0.330863E-01  0.329531E-01  0.326187E-01  0.322428E-01
  0.319588E-01  0.318541E-01  0.319588E-01  0.322428E-01  0.326187E-01  0.329531E-01
  0.330863E-01  0.328587E-01  0.321403E-01  0.308544E-01  0.289908E-01  0.266055E-01
  0.238093E-01  0.207487E-01  0.175805E-01  0.144485E-01  0.114712E-01  0.875029E-02
  0.639555E-02  0.454324E-02  0.334608E-02  0.207186E-02  0.207186E-02  0.293049E-02
  0.454324E-02  0.674743E-02  0.938120E-02  0.123164E-01  0.154521E-01  0.186858E-01
  0.218907E-01  0.249158E-01  0.276045E-01  0.298213E-01  0.314757E-01  0.325391E-01
  0.330517E-01  0.331176E-01  0.328863E-01  0.325240E-01  0.321847E-01  0.319841E-01
  0.319841E-01  0.321847E-01  0.325240E-01  0.328863E-01  0.331176E-01  0.330517E-01
  0.325391E-01  0.314757E-01  0.298213E-01  0.276045E-01  0.249158E-01  0.218907E-01
  0.186858E-01  0.154521E-01  0.123164E-01  0.938120E-02  0.674743E-02  0.454324E-02
  0.293049E-02  0.207186E-02  0.162784E-02  0.207186E-02  0.334608E-02  0.530390E-02
  0.777072E-02  0.105962E-01  0.136679E-01  0.168893E-01  0.201493E-01  0.233089E-01
  0.262113E-01  0.287063E-01  0.306766E-01  0.320592E-01  0.328584E-01  0.331467E-01
  0.330539E-01  0.327423E-01  0.323769E-01  0.320965E-01  0.319924E-01  0.320965E-01
  0.323769E-01  0.327423E-01  0.330539E-01  0.331467E-01  0.328584E-01  0.320592E-01
  0.306766E-01  0.287063E-01  0.262113E-01  0.233089E-01  0.201493E-01  0.168893E-01
  0.136679E-01  0.105962E-01  0.777072E-02  0.530390E-02  0.334608E-02  0.207186E-02
  0.162784E-02  0.207186E-02  0.293049E-02  0.454324E-02  0.674743E-02  0.938120E-02
  0.123164E-01  0.154521E-01  0.186858E-01  0.218907E-01  0.249158E-01  0.276045E-01
  0.298213E-01  0.314757E-01  0.325391E-01  0.330517E-01  0.331176E-01  0.328863E-01
  0.325240E-01  0.321847E-01  0.319841E-01  0.319841E-01  0.321847E-01  0.325240E-01
  0.328863E-01  0.331176E-01  0.330517E-01  0.325391E-01  0.314757E-01  0.298213E-01
  0.276045E-01  0.249158E-01  0.218907E-01  0.186858E-01  0.154521E-01  0.123164E-01
  0.938120E-02  0.674743E-02  0.454324E-02  0.293049E-02  0.207186E-02  0.207186E-02
  0.293049E-02  0.415709E-02  0.605001E-02  0.844823E-02  0.112099E-01  0.142237E-01
  0.173895E-01  0.205912E-01  0.236870E-01  0.265203E-01  0.289437E-01  0.308441E-01
  0.321635E-01  0.329097E-01  0.331583E-01  0.330389E-01  0.327122E-01  0.323398E-01
  0.320569E-01  0.319524E-01  0.320569E-01  0.323398E-01  0.327122E-01  0.330389E-01
  0.331583E-01  0.329097E-01  0.321635E-01  0.308441E-01  0.289437E-01  0.265203E-01
  0.236870E-01  0.205912E-01  0.173895E-01  0.142237E-01  0.112099E-01  0.844823E-02
  0.605001E-02  0.415709E-02  0.293049E-02  0.250407E-02  0.293049E-02  0.454324E-02
  0.605001E-02  0.812900E-02  0.106389E-01  0.134597E-01  0.164872E-01  0.196099E-01
  0.226942E-01  0.255870E-01  0.281356E-01  0.302119E-01  0.317344E-01  0.326834E-01
  0.331056E-01  0.331077E-01  0.328373E-01  0.324552E-01  0.321080E-01  0.319054E-01
  0.319054E-01  0.321080E-01  0.324552E-01  0.328373E-01  0.331077E-01  0.331056E-01
  0.326834E-01  0.317344E-01  0.302119E-01  0.281356E-01  0.255870E-01  0.226942E-01
  0.196099E-01  0.164872E-01  0.134597E-01  0.106389E-01  0.812900E-02  0.605001E-02
  0.454324E-02  0.374624E-02  0.374624E-02  0.454324E-02  0.674743E-02  0.844823E-02
  0.106389E-01  0.132003E-01  0.160243E-01  0.189999E-01  0.219984E-01  0.248717E-01
  0.274660E-01  0.296441E-01  0.313078E-01  0.324145E-01  0.329857E-01  0.331043E-01
  0.329005E-01  0.325274E-01  0.321351E-01  0.318465E-01  0.317411E-01  0.318465E-01
  0.321351E-01  0.325274E-01  0.329005E-01  0.331043E-01  0.329857E-01  0.324145E-01
  0.313078E-01  0.296441E-01  0.274660E-01  0.248717E-01  0.219984E-01  0.189999E-01
  0.160243E-01  0.132003E-01  0.106389E-01  0.844823E-02  0.674743E-02  0.566009E-02
  0.528490E-02  0.566009E-02  0.674743E-02  0.938120E-02  0.112099E-01  0.134597E-01
  0.160243E-01  0.187930E-01  0.216404E-01  0.244230E-01  0.269888E-01  0.291961E-01
  0.309355E-01  0.321470E-01  0.328310E-01  0.330484E-01  0.329103E-01  0.325581E-01
  0.321381E-01  0.317791E-01  0.315750E-01  0.315750E-01  0.317791E-01  0.321381E-01
  0.325581E-01  0.329103E-01  0.330484E-01  0.328310E-01  0.321470E-01  0.309355E-01
  0.291961E-01  0.269888E-01  0.244230E-01  0.216404E-01  0.187930E-01  0.160243E-01
  0.134597E-01  0.112099E-01  0.938120E-02  0.808021E-02  0.740111E-02  0.740111E-02
  0.808021E-02  0.938120E-02  0.123164E-01  0.142237E-01  0.164872E-01  0.189999E-01
  0.216404E-01  0.242702E-01  0.267408E-01  0.289098E-01  0.306610E-01  0.319219E-01
  0.326759E-01  0.329649E-01  0.328821E-01  0.325543E-01  0.321201E-01  0.317074E-01
  0.314172E-01  0.313133E-01  0.314172E-01  0.317074E-01  0.321201E-01  0.325543E-01
  0.328821E-01  0.329649E-01  0.326759E-01  0.319219E-01  0.306610E-01  0.289098E-01
  0.267408E-01  0.242702E-01  0.216404E-01  0.189999E-01  0.164872E-01  0.142237E-01
  0.123164E-01  0.108625E-01  0.994806E-02  0.963549E-02  0.994806E-02  0.108625E-01
  0.123164E-01  0.154521E-01  0.173895E-01  0.196099E-01  0.219984E-01  0.244230E-01
  0.267408E-01  0.288115E-01  0.305157E-01  0.317724E-01  0.325520E-01  0.328806E-01
  0.328351E-01  0.325282E-01  0.320877E-01  0.316364E-01  0.312761E-01  0.310779E-01
  0.310779E-01  0.312761E-01  0.316364E-01  0.320877E-01  0.325282E-01  0.328351E-01
  0.328806E-01  0.325520E-01  0.317724E-01  0.305157E-01  0.288115E-01  0.267408E-01
  0.244230E-01  0.219984E-01  0.196099E-01  0.173895E-01  0.154521E-01  0.138963E-01
  0.128050E-01  0.122417E-01  0.122417E-01  0.128050E-01  0.138963E-01  0.154521E-01
  0.186858E-01  0.205912E-01  0.226942E-01  0.248717E-01  0.269888E-01  0.289098E-01
  0.305157E-01  0.317200E-01  0.324834E-01  0.328191E-01  0.327896E-01  0.324943E-01
  0.320501E-01  0.315719E-01  0.311579E-01  0.308805E-01  0.307832E-01  0.308805E-01
  0.311579E-01  0.315719E-01  0.320501E-01  0.324943E-01  0.327896E-01  0.328191E-01
  0.324834E-01  0.317200E-01  0.305157E-01  0.289098E-01  0.269888E-01  0.248717E-01
  0.226942E-01  0.205912E-01  0.186858E-01  0.170834E-01  0.158706E-01  0.151140E-01
  0.148568E-01  0.151140E-01  0.158706E-01  0.170834E-01  0.186858E-01  0.218907E-01
  0.236870E-01  0.255870E-01  0.274660E-01  0.291961E-01  0.306610E-01  0.317724E-01
  0.324834E-01  0.327966E-01  0.327622E-01  0.324671E-01  0.320175E-01  0.315199E-01
  0.310667E-01  0.307273E-01  0.305468E-01  0.305468E-01  0.307273E-01  0.310667E-01
  0.315199E-01  0.320175E-01  0.324671E-01  0.327622E-01  0.327966E-01  0.324834E-01
  0.317724E-01  0.306610E-01  0.291961E-01  0.274660E-01  0.255870E-01  0.236870E-01
  0.218907E-01  0.203098E-01  0.190374E-01  0.181466E-01  0.176880E-01  0.176880E-01
  0.181466E-01  0.190374E-01  0.203098E-01  0.218907E-01  0.249158E-01  0.265203E-01
  0.281356E-01  0.296441E-01  0.309355E-01  0.319219E-01  0.325520E-01  0.328191E-01
  0.327622E-01  0.324568E-01  0.319987E-01  0.314862E-01  0.310050E-01  0.306200E-01
  0.303737E-01  0.302893E-01  0.303737E-01  0.306200E-01  0.310050E-01  0.314862E-01
  0.319987E-01  0.324568E-01  0.327622E-01  0.328191E-01  0.325520E-01  0.319219E-01
  0.309355E-01  0.296441E-01  0.281356E-01  0.265203E-01  0.249158E-01  0.234342E-01